
    -----------------------------------------------------------------------
          Psi4: An Open-Source Ab Initio Electronic Structure Package
                               Psi4 1.2 release

                         Git: Rev {HEAD} 9d4a61c 


    R. M. Parrish, L. A. Burns, D. G. A. Smith, A. C. Simmonett,
    A. E. DePrince III, E. G. Hohenstein, U. Bozkaya, A. Yu. Sokolov,
    R. Di Remigio, R. M. Richard, J. F. Gonthier, A. M. James,
    H. R. McAlexander, A. Kumar, M. Saitow, X. Wang, B. P. Pritchard,
    P. Verma, H. F. Schaefer III, K. Patkowski, R. A. King, E. F. Valeev,
    F. A. Evangelista, J. M. Turney, T. D. Crawford, and C. D. Sherrill,
    J. Chem. Theory Comput. 13(7) pp 3185--3197 (2017).
    (doi: 10.1021/acs.jctc.7b00174)


                         Additional Contributions by
    P. Kraus, H. Kruse, M. H. Lechner, M. C. Schieber, and R. A. Shaw

    -----------------------------------------------------------------------


    Psi4 started on: Saturday, 05 January 2019 11:14PM

    Process ID: 45
    Host:       Touko
    PSIDATADIR: /home/touko/psi4conda/share/psi4
    Memory:     500.0 MiB
    Threads:    1
    
  ==> Input File <==

--------------------------------------------------------------------------
molecule NCOAr{
  0 1
  Ar 0.0 0.0 R
  --
  0 2
  C 0.0 0.0 0.0
  N 0.0 0.0 1.231991
  O 0.0 0.0 -1.175455
}

Rvars = [4.0,4.2,4.4,4.6,4.8,5.0,5.2,5.4,5.6,5.8,6.0,6.2,6.4,6.6,6.8,7.0]
autocm = 219474.63067

table=Table(rows=["R"], cols=["E(Ele)","E(Ex)","E(Ind)","E(Disp)","E(SAPT0)"])

set {
  basis = aug-cc-pvdz
  reference = UHF
}

for R in Rvars:
  NCOAr.R = -R - 0.036898
  energy('sapt0')
  eele = get_variable('SAPT ELST ENERGY') * autocm
  eex = get_variable('SAPT EXCH ENERGY') * autocm
  eind = get_variable('SAPT IND ENERGY') * autocm
  edisp = get_variable('SAPT DISP ENERGY') * autocm
  esapt0 = get_variable('SAPT TOTAL ENERGY') * autocm
  table[R] = [eele,eex,eind,edisp,esapt0]

print(table)
--------------------------------------------------------------------------
Molecule: geometry: Molecule is not complete, please use 'update_geometry'
                    once all variables are set.

Molecule: Setting a variable updates the molecular geometry, for
          cartesian molecules this can lead to surprising behaviour.
          Freezing COM and orientation to prevent this.

Molecule: Setting geometry variable R to -4.036898
  SAPT does not make use of molecular symmetry, further calculations in C1 point group.

  //>>>>>>>>>>>>>>>>>>>>>>>>>>>>>>>>>>>//
  //              Dimer HF             //
  //<<<<<<<<<<<<<<<<<<<<<<<<<<<<<<<<<<<//


*** tstart() called on Touko
*** at Sat Jan  5 23:14:56 2019

   => Loading Basis Set <=

    Name: AUG-CC-PVDZ
    Role: ORBITAL
    Keyword: BASIS
    atoms 1 entry AR         line   830 file /home/touko/psi4conda/share/psi4/basis/aug-cc-pvdz.gbs 
    atoms 2 entry C          line   178 file /home/touko/psi4conda/share/psi4/basis/aug-cc-pvdz.gbs 
    atoms 3 entry N          line   214 file /home/touko/psi4conda/share/psi4/basis/aug-cc-pvdz.gbs 
    atoms 4 entry O          line   250 file /home/touko/psi4conda/share/psi4/basis/aug-cc-pvdz.gbs 


         ---------------------------------------------------------
                                   SCF
            by Justin Turney, Rob Parrish, Andy Simmonett
                             and Daniel Smith
                              UHF Reference
                        1 Threads,    500 MiB Core
         ---------------------------------------------------------

  ==> Geometry <==

    Molecular point group: c1
    Full point group: C_inf_v

    Geometry (in Angstrom), charge = 0, multiplicity = 2:

       Center              X                  Y                   Z               Mass       
    ------------   -----------------  -----------------  -----------------  -----------------
         AR           0.000000000000     0.000000000000    -4.036898000000    39.962383122510
         C            0.000000000000     0.000000000000     0.000000000000    12.000000000000
         N            0.000000000000     0.000000000000     1.231991000000    14.003074004780
         O            0.000000000000     0.000000000000    -1.175455000000    15.994914619560

  Running in c1 symmetry.

  Rotational constants: A = ************  B =      0.02427  C =      0.02427 [cm^-1]
  Rotational constants: A = ************  B =    727.57989  C =    727.57989 [MHz]
  Nuclear repulsion =  105.400992004437370

  Charge       = 0
  Multiplicity = 2
  Electrons    = 39
  Nalpha       = 20
  Nbeta        = 19

  ==> Algorithm <==

  SCF Algorithm Type is DF.
  DIIS enabled.
  MOM disabled.
  Fractional occupation disabled.
  Guess Type is GWH.
  Energy threshold   = 1.00e-08
  Density threshold  = 1.00e-08
  Integral threshold = 0.00e+00

  ==> Primary Basis <==

  Basis Set: AUG-CC-PVDZ
    Blend: AUG-CC-PVDZ
    Number of shells: 38
    Number of basis function: 96
    Number of Cartesian functions: 104
    Spherical Harmonics?: true
    Max angular momentum: 2

   => Loading Basis Set <=

    Name: (AUG-CC-PVDZ AUX)
    Role: JKFIT
    Keyword: DF_BASIS_SCF
    atoms 1 entry AR         line   854 file /home/touko/psi4conda/share/psi4/basis/aug-cc-pvdz-jkfit.gbs 
    atoms 2 entry C          line   154 file /home/touko/psi4conda/share/psi4/basis/aug-cc-pvdz-jkfit.gbs 
    atoms 3 entry N          line   212 file /home/touko/psi4conda/share/psi4/basis/aug-cc-pvdz-jkfit.gbs 
    atoms 4 entry O          line   270 file /home/touko/psi4conda/share/psi4/basis/aug-cc-pvdz-jkfit.gbs 

  ==> Pre-Iterations <==

   -------------------------------------------------------
    Irrep   Nso     Nmo     Nalpha   Nbeta   Ndocc  Nsocc
   -------------------------------------------------------
     A         96      96       0       0       0       0
   -------------------------------------------------------
    Total      96      96      20      19      19       1
   -------------------------------------------------------

  ==> Integral Setup <==

  ==> DiskDFJK: Density-Fitted J/K Matrices <==

    J tasked:                  Yes
    K tasked:                  Yes
    wK tasked:                  No
    OpenMP threads:              1
    Integrals threads:           1
    Memory (MB):               375
    Algorithm:                Core
    Integral Cache:           SAVE
    Schwarz Cutoff:          1E-12
    Fitting Condition:       1E-12

   => Auxiliary Basis Set <=

  Basis Set: (AUG-CC-PVDZ AUX)
    Blend: AUG-CC-PVDZ-JKFIT
    Number of shells: 124
    Number of basis function: 386
    Number of Cartesian functions: 453
    Spherical Harmonics?: true
    Max angular momentum: 3

  Minimum eigenvalue in the overlap matrix is 6.2633496958E-04.
  Using Symmetric Orthogonalization.

  SCF Guess: Generalized Wolfsberg-Helmholtz.

  ==> Iterations <==

                           Total Energy        Delta E     RMS |[F,P]|

   @DF-UHF iter   1:  -685.31776920406128   -6.85318e+02   4.41814e-02 
   @DF-UHF iter   2:  -646.88139837326491    3.84364e+01   7.11413e-02 DIIS
   @DF-UHF iter   3:  -693.33235112760701   -4.64510e+01   1.12389e-02 DIIS
   @DF-UHF iter   4:  -693.83282154104529   -5.00470e-01   5.17557e-03 DIIS
   @DF-UHF iter   5:  -693.93377561854095   -1.00954e-01   1.30058e-03 DIIS
   @DF-UHF iter   6:  -693.94343741197440   -9.66179e-03   4.59996e-04 DIIS
   @DF-UHF iter   7:  -693.94638264618993   -2.94523e-03   2.76786e-04 DIIS
   @DF-UHF iter   8:  -693.94797777369899   -1.59513e-03   2.09566e-04 DIIS
   @DF-UHF iter   9:  -693.94953456844610   -1.55679e-03   1.41349e-04 DIIS
   @DF-UHF iter  10:  -693.95051291127891   -9.78343e-04   8.13020e-05 DIIS
   @DF-UHF iter  11:  -693.95090417910467   -3.91268e-04   3.60150e-05 DIIS
   @DF-UHF iter  12:  -693.95097316349495   -6.89844e-05   1.20132e-05 DIIS
   @DF-UHF iter  13:  -693.95097810263690   -4.93914e-06   4.23996e-06 DIIS
   @DF-UHF iter  14:  -693.95097848475041   -3.82114e-07   1.00684e-06 DIIS
   @DF-UHF iter  15:  -693.95097850680668   -2.20563e-08   5.83673e-07 DIIS
   @DF-UHF iter  16:  -693.95097851655703   -9.75035e-09   4.44741e-07 DIIS
   @DF-UHF iter  17:  -693.95097852675747   -1.02004e-08   2.30592e-07 DIIS
   @DF-UHF iter  18:  -693.95097852955496   -2.79749e-09   9.81192e-08 DIIS
   @DF-UHF iter  19:  -693.95097852987863   -3.23666e-10   4.34949e-08 DIIS
   @DF-UHF iter  20:  -693.95097852992603   -4.74074e-11   1.96408e-08 DIIS
   @DF-UHF iter  21:  -693.95097852993456   -8.52651e-12   6.71923e-09 DIIS

  ==> Post-Iterations <==

   @Spin Contamination Metric:   9.144770165E-02
   @S^2 Expected:                7.500000000E-01
   @S^2 Observed:                8.414477017E-01
   @S   Expected:                5.000000000E-01
   @S   Observed:                5.000000000E-01

    Orbital Energies [Eh]
    ---------------------

    Alpha Occupied:                                                       

       1A   -118.604882     2A    -20.707007     3A    -15.663453  
       4A    -12.317252     5A    -11.425229     6A     -9.565865  
       7A     -9.565852     8A     -9.565826     9A     -1.542891  
      10A     -1.296588    11A     -1.274598    12A     -0.813093  
      13A     -0.728734    14A     -0.696738    15A     -0.648357  
      16A     -0.588193    17A     -0.587940    18A     -0.584819  
      19A     -0.554042    20A     -0.495660  

    Alpha Virtual:                                                        

      21A      0.056460    22A      0.082988    23A      0.086683  
      24A      0.091201    25A      0.136105    26A      0.158375  
      27A      0.160643    28A      0.177635    29A      0.182551  
      30A      0.186462    31A      0.221243    32A      0.232008  
      33A      0.248291    34A      0.279823    35A      0.285211  
      36A      0.288363    37A      0.347351    38A      0.389634  
      39A      0.401524    40A      0.401556    41A      0.500118  
      42A      0.544045    43A      0.544045    44A      0.567804  
      45A      0.568820    46A      0.618544    47A      0.658658  
      48A      0.673429    49A      0.674853    50A      0.753497  
      51A      0.754251    52A      0.784253    53A      0.789450  
      54A      0.861011    55A      0.880299    56A      0.882897  
      57A      0.895599    58A      0.986038    59A      0.987641  
      60A      0.992426    61A      1.080994    62A      1.097666  
      63A      1.098174    64A      1.194838    65A      1.213640  
      66A      1.292058    67A      1.421897    68A      1.515455  
      69A      1.532729    70A      1.560807    71A      1.594466  
      72A      1.594638    73A      1.618001    74A      1.618039  
      75A      1.646275    76A      1.653419    77A      1.655095  
      78A      1.740823    79A      1.759122    80A      1.884802  
      81A      2.085595    82A      2.106607    83A      2.308175  
      84A      2.491477    85A      2.492244    86A      2.638942  
      87A      2.798434    88A      2.868254    89A      2.898276  
      90A      3.256972    91A      3.494341    92A      3.539332  
      93A      3.539731    94A      3.741952    95A      3.767142  
      96A      4.188455  

    Beta Occupied:                                                        

       1A   -118.604889     2A    -20.686255     3A    -15.636649  
       4A    -12.317260     5A    -11.435287     6A     -9.565858  
       7A     -9.565858     8A     -9.565854     9A     -1.498073  
      10A     -1.274676    11A     -1.203007    12A     -0.788657  
      13A     -0.690697    14A     -0.604592    15A     -0.598810  
      16A     -0.587950    17A     -0.587266    18A     -0.583614  
      19A     -0.450762  

    Beta Virtual:                                                         

      20A     -0.023067    21A      0.056957    22A      0.086608  
      23A      0.087201    24A      0.091803    25A      0.136144  
      26A      0.161213    27A      0.163713    28A      0.180575  
      29A      0.183078    30A      0.199474    31A      0.234263  
      32A      0.250133    33A      0.257710    34A      0.285546  
      35A      0.293672    36A      0.345224    37A      0.351909  
      38A      0.390521    39A      0.400549    40A      0.401033  
      41A      0.502992    42A      0.544073    43A      0.544074  
      44A      0.566420    45A      0.567598    46A      0.619620  
      47A      0.675492    48A      0.684118    49A      0.685740  
      50A      0.776831    51A      0.777165    52A      0.782423  
      53A      0.784828    54A      0.864353    55A      0.887129  
      56A      0.896880    57A      0.903625    58A      0.987791  
      59A      0.988313    60A      1.002063    61A      1.084584  
      62A      1.109905    63A      1.110215    64A      1.219495  
      65A      1.238882    66A      1.301384    67A      1.424388  
      68A      1.522641    69A      1.574573    70A      1.579169  
      71A      1.579316    72A      1.589940    73A      1.616823  
      74A      1.616829    75A      1.653379    76A      1.658932  
      77A      1.663982    78A      1.765324    79A      1.790495  
      80A      1.887078    81A      2.108589    82A      2.111440  
      83A      2.327105    84A      2.562182    85A      2.562445  
      86A      2.649724    87A      2.807933    88A      2.909656  
      89A      2.912790    90A      3.276895    91A      3.503624  
      92A      3.583883    93A      3.584269    94A      3.774344  
      95A      3.782161    96A      4.205812  

    Final Occupation by Irrep:
              A 
    DOCC [    19 ]
    SOCC [     1 ]

  Energy converged.

  @DF-UHF Final Energy:  -693.95097852993456

   => Energetics <=

    Nuclear Repulsion Energy =            105.4009920044373700
    One-Electron Energy =               -1165.2309061775995360
    Two-Electron Energy =                 365.8789356432275781
    Total Energy =                       -693.9509785299346731


  UHF NO Occupations:
  HONO-2 :   18  A 1.9949027
  HONO-1 :   19  A 1.9616288
  HONO-0 :   20  A 1.0000000
  LUNO+0 :   21  A 0.0383712
  LUNO+1 :   22  A 0.0050973
  LUNO+2 :   23  A 0.0017886
  LUNO+3 :   24  A 0.0006396



Properties will be evaluated at   0.000000,   0.000000,   0.000000 [a0]

Properties computed using the SCF density matrix

  Nuclear Dipole Moment: [e a0]
     X:     0.0000      Y:     0.0000      Z:  -138.7888

  Electronic Dipole Moment: [e a0]
     X:     0.0000      Y:    -0.0000      Z:   138.5297

  Dipole Moment: [e a0]
     X:     0.0000      Y:    -0.0000      Z:    -0.2591     Total:     0.2591

  Dipole Moment: [D]
     X:     0.0000      Y:    -0.0000      Z:    -0.6587     Total:     0.6587


*** tstop() called on Touko at Sat Jan  5 23:14:58 2019
Module time:
	user time   =       2.12 seconds =       0.04 minutes
	system time =       0.19 seconds =       0.00 minutes
	total time  =          2 seconds =       0.03 minutes
Total time:
	user time   =       2.12 seconds =       0.04 minutes
	system time =       0.19 seconds =       0.00 minutes
	total time  =          2 seconds =       0.03 minutes

  //>>>>>>>>>>>>>>>>>>>>>>>>>>>>>>>>>>>//
  //            Monomer A HF           //
  //<<<<<<<<<<<<<<<<<<<<<<<<<<<<<<<<<<<//


*** tstart() called on Touko
*** at Sat Jan  5 23:14:58 2019

   => Loading Basis Set <=

    Name: AUG-CC-PVDZ
    Role: ORBITAL
    Keyword: BASIS
    atoms 1 entry AR         line   830 file /home/touko/psi4conda/share/psi4/basis/aug-cc-pvdz.gbs 
    atoms 2 entry C          line   178 file /home/touko/psi4conda/share/psi4/basis/aug-cc-pvdz.gbs 
    atoms 3 entry N          line   214 file /home/touko/psi4conda/share/psi4/basis/aug-cc-pvdz.gbs 
    atoms 4 entry O          line   250 file /home/touko/psi4conda/share/psi4/basis/aug-cc-pvdz.gbs 


         ---------------------------------------------------------
                                   SCF
            by Justin Turney, Rob Parrish, Andy Simmonett
                             and Daniel Smith
                              UHF Reference
                        1 Threads,    500 MiB Core
         ---------------------------------------------------------

  ==> Geometry <==

    Molecular point group: c1
    Full point group: C_inf_v

    Geometry (in Angstrom), charge = 0, multiplicity = 1:

       Center              X                  Y                   Z               Mass       
    ------------   -----------------  -----------------  -----------------  -----------------
         AR           0.000000000000     0.000000000000    -4.036898000000    39.962383122510
      Gh(C)           0.000000000000     0.000000000000     0.000000000000    12.000000000000
      Gh(N)           0.000000000000     0.000000000000     1.231991000000    14.003074004780
      Gh(O)           0.000000000000     0.000000000000    -1.175455000000    15.994914619560

  Running in c1 symmetry.

  Rotational constants: A = ************  B =      0.02427  C =      0.02427 [cm^-1]
  Rotational constants: A = ************  B =    727.57989  C =    727.57989 [MHz]
  Nuclear repulsion =    0.000000000000000

  Charge       = 0
  Multiplicity = 1
  Electrons    = 18
  Nalpha       = 9
  Nbeta        = 9

  ==> Algorithm <==

  SCF Algorithm Type is DF.
  DIIS enabled.
  MOM disabled.
  Fractional occupation disabled.
  Guess Type is GWH.
  Energy threshold   = 1.00e-08
  Density threshold  = 1.00e-08
  Integral threshold = 0.00e+00

  ==> Primary Basis <==

  Basis Set: AUG-CC-PVDZ
    Blend: AUG-CC-PVDZ
    Number of shells: 38
    Number of basis function: 96
    Number of Cartesian functions: 104
    Spherical Harmonics?: true
    Max angular momentum: 2

   => Loading Basis Set <=

    Name: (AUG-CC-PVDZ AUX)
    Role: JKFIT
    Keyword: DF_BASIS_SCF
    atoms 1 entry AR         line   854 file /home/touko/psi4conda/share/psi4/basis/aug-cc-pvdz-jkfit.gbs 
    atoms 2 entry C          line   154 file /home/touko/psi4conda/share/psi4/basis/aug-cc-pvdz-jkfit.gbs 
    atoms 3 entry N          line   212 file /home/touko/psi4conda/share/psi4/basis/aug-cc-pvdz-jkfit.gbs 
    atoms 4 entry O          line   270 file /home/touko/psi4conda/share/psi4/basis/aug-cc-pvdz-jkfit.gbs 

  ==> Pre-Iterations <==

   -------------------------------------------------------
    Irrep   Nso     Nmo     Nalpha   Nbeta   Ndocc  Nsocc
   -------------------------------------------------------
     A         96      96       0       0       0       0
   -------------------------------------------------------
    Total      96      96       9       9       9       0
   -------------------------------------------------------

  ==> Integral Setup <==

  ==> DiskDFJK: Density-Fitted J/K Matrices <==

    J tasked:                  Yes
    K tasked:                  Yes
    wK tasked:                  No
    OpenMP threads:              1
    Integrals threads:           1
    Memory (MB):               375
    Algorithm:                Core
    Integral Cache:           LOAD
    Schwarz Cutoff:          1E-12
    Fitting Condition:       1E-12

   => Auxiliary Basis Set <=

  Basis Set: (AUG-CC-PVDZ AUX)
    Blend: AUG-CC-PVDZ-JKFIT
    Number of shells: 124
    Number of basis function: 386
    Number of Cartesian functions: 453
    Spherical Harmonics?: true
    Max angular momentum: 3

  Minimum eigenvalue in the overlap matrix is 6.2633496958E-04.
  Using Symmetric Orthogonalization.

  SCF Guess: Generalized Wolfsberg-Helmholtz.

  ==> Iterations <==

                           Total Energy        Delta E     RMS |[F,P]|

   @DF-UHF iter   1:  -493.40210987334797   -4.93402e+02   1.11787e-01 
   @DF-UHF iter   2:  -525.66273842522332   -3.22606e+01   1.38123e-02 DIIS
   @DF-UHF iter   3:  -526.74828474623314   -1.08555e+00   3.81216e-03 DIIS
   @DF-UHF iter   4:  -526.80079226254577   -5.25075e-02   2.37325e-04 DIIS
   @DF-UHF iter   5:  -526.80110325337273   -3.10991e-04   2.83566e-05 DIIS
   @DF-UHF iter   6:  -526.80111034502829   -7.09166e-06   6.33895e-06 DIIS
   @DF-UHF iter   7:  -526.80111065356891   -3.08541e-07   1.11514e-06 DIIS
   @DF-UHF iter   8:  -526.80111066548170   -1.19128e-08   2.95048e-07 DIIS
   @DF-UHF iter   9:  -526.80111066671907   -1.23737e-09   2.40652e-08 DIIS
   @DF-UHF iter  10:  -526.80111066672418   -5.11591e-12   3.95133e-09 DIIS

  ==> Post-Iterations <==

   @Spin Contamination Metric:  -2.664535259E-14
   @S^2 Expected:                0.000000000E+00
   @S^2 Observed:               -2.664535259E-14
   @S   Expected:                0.000000000E+00
   @S   Observed:                0.000000000E+00

    Orbital Energies [Eh]
    ---------------------

    Alpha Occupied:                                                       

       1A   -118.610761     2A    -12.322786     3A     -9.571422  
       4A     -9.571395     5A     -9.571395     6A     -1.278742  
       7A     -0.592179     8A     -0.592072     9A     -0.592072  

    Alpha Virtual:                                                        

      10A      0.043513    11A      0.078512    12A      0.082991  
      13A      0.082991    14A      0.131899    15A      0.153151  
      16A      0.153151    17A      0.172612    18A      0.184482  
      19A      0.192786    20A      0.192786    21A      0.237622  
      22A      0.247721    23A      0.247721    24A      0.286229  
      25A      0.355749    26A      0.485942    27A      0.485942  
      28A      0.493909    29A      0.507249    30A      0.507249  
      31A      0.541699    32A      0.541699    33A      0.558740  
      34A      0.558740    35A      0.581531    36A      0.606039  
      37A      0.639119    38A      0.639119    39A      0.640059  
      40A      0.852741    41A      0.855205    42A      0.855205  
      43A      0.881120    44A      0.881120    45A      0.944049  
      46A      0.971609    47A      0.971609    48A      1.085818  
      49A      1.087245    50A      1.087245    51A      1.178108  
      52A      1.228036    53A      1.228036    54A      1.248989  
      55A      1.302898    56A      1.302898    57A      1.341744  
      58A      1.413495    59A      1.507662    60A      1.507662  
      61A      1.611934    62A      1.611934    63A      1.630054  
      64A      1.664838    65A      1.664838    66A      1.874185  
      67A      2.223843    68A      2.223843    69A      2.752419  
      70A      2.760153    71A      2.760153    72A      3.064535  
      73A      3.210995    74A      3.312086    75A      3.312086  
      76A      3.385824    77A      3.385824    78A      3.700175  
      79A      3.752825    80A      3.752825    81A      4.369581  
      82A      4.622696    83A      4.635989    84A      4.635989  
      85A      4.887394    86A      4.887394    87A      5.098042  
      88A      5.098042    89A      5.315637    90A      5.994092  
      91A      5.994092    92A      6.520944    93A      7.608840  
      94A     18.812307    95A     25.250637    96A     33.536000  

    Beta Occupied:                                                        

       1A   -118.610761     2A    -12.322786     3A     -9.571422  
       4A     -9.571395     5A     -9.571395     6A     -1.278742  
       7A     -0.592179     8A     -0.592072     9A     -0.592072  

    Beta Virtual:                                                         

      10A      0.043513    11A      0.078512    12A      0.082991  
      13A      0.082991    14A      0.131899    15A      0.153151  
      16A      0.153151    17A      0.172612    18A      0.184482  
      19A      0.192786    20A      0.192786    21A      0.237622  
      22A      0.247721    23A      0.247721    24A      0.286229  
      25A      0.355749    26A      0.485942    27A      0.485942  
      28A      0.493909    29A      0.507249    30A      0.507249  
      31A      0.541699    32A      0.541699    33A      0.558740  
      34A      0.558740    35A      0.581531    36A      0.606039  
      37A      0.639119    38A      0.639119    39A      0.640059  
      40A      0.852741    41A      0.855205    42A      0.855205  
      43A      0.881120    44A      0.881120    45A      0.944049  
      46A      0.971609    47A      0.971609    48A      1.085818  
      49A      1.087245    50A      1.087245    51A      1.178108  
      52A      1.228036    53A      1.228036    54A      1.248989  
      55A      1.302898    56A      1.302898    57A      1.341744  
      58A      1.413495    59A      1.507662    60A      1.507662  
      61A      1.611934    62A      1.611934    63A      1.630054  
      64A      1.664838    65A      1.664838    66A      1.874185  
      67A      2.223843    68A      2.223843    69A      2.752419  
      70A      2.760153    71A      2.760153    72A      3.064535  
      73A      3.210995    74A      3.312086    75A      3.312086  
      76A      3.385824    77A      3.385824    78A      3.700175  
      79A      3.752825    80A      3.752825    81A      4.369581  
      82A      4.622696    83A      4.635989    84A      4.635989  
      85A      4.887394    86A      4.887394    87A      5.098042  
      88A      5.098042    89A      5.315637    90A      5.994092  
      91A      5.994092    92A      6.520944    93A      7.608840  
      94A     18.812307    95A     25.250637    96A     33.536000  

    Final Occupation by Irrep:
              A 
    DOCC [     9 ]
    SOCC [     0 ]

  Energy converged.

  @DF-UHF Final Energy:  -526.80111066672418

   => Energetics <=

    Nuclear Repulsion Energy =              0.0000000000000000
    One-Electron Energy =                -728.1965720416924341
    Two-Electron Energy =                 201.3954613749682210
    Total Energy =                       -526.8011106667241847


  UHF NO Occupations:
  HONO-2 :    7  A 2.0000000
  HONO-1 :    8  A 2.0000000
  HONO-0 :    9  A 2.0000000
  LUNO+0 :   10  A 0.0000000
  LUNO+1 :   11  A 0.0000000
  LUNO+2 :   12  A 0.0000000
  LUNO+3 :   13  A 0.0000000



Properties will be evaluated at   0.000000,   0.000000,   0.000000 [a0]

Properties computed using the SCF density matrix

  Nuclear Dipole Moment: [e a0]
     X:     0.0000      Y:     0.0000      Z:  -137.3154

  Electronic Dipole Moment: [e a0]
     X:     0.0000      Y:     0.0000      Z:   137.3160

  Dipole Moment: [e a0]
     X:     0.0000      Y:     0.0000      Z:     0.0007     Total:     0.0007

  Dipole Moment: [D]
     X:     0.0000      Y:     0.0000      Z:     0.0017     Total:     0.0017


*** tstop() called on Touko at Sat Jan  5 23:14:59 2019
Module time:
	user time   =       0.85 seconds =       0.01 minutes
	system time =       0.09 seconds =       0.00 minutes
	total time  =          1 seconds =       0.02 minutes
Total time:
	user time   =       2.97 seconds =       0.05 minutes
	system time =       0.28 seconds =       0.00 minutes
	total time  =          3 seconds =       0.05 minutes

  //>>>>>>>>>>>>>>>>>>>>>>>>>>>>>>>>>>>//
  //            Monomer B HF           //
  //<<<<<<<<<<<<<<<<<<<<<<<<<<<<<<<<<<<//


*** tstart() called on Touko
*** at Sat Jan  5 23:14:59 2019

   => Loading Basis Set <=

    Name: AUG-CC-PVDZ
    Role: ORBITAL
    Keyword: BASIS
    atoms 1 entry AR         line   830 file /home/touko/psi4conda/share/psi4/basis/aug-cc-pvdz.gbs 
    atoms 2 entry C          line   178 file /home/touko/psi4conda/share/psi4/basis/aug-cc-pvdz.gbs 
    atoms 3 entry N          line   214 file /home/touko/psi4conda/share/psi4/basis/aug-cc-pvdz.gbs 
    atoms 4 entry O          line   250 file /home/touko/psi4conda/share/psi4/basis/aug-cc-pvdz.gbs 


         ---------------------------------------------------------
                                   SCF
            by Justin Turney, Rob Parrish, Andy Simmonett
                             and Daniel Smith
                              UHF Reference
                        1 Threads,    500 MiB Core
         ---------------------------------------------------------

  ==> Geometry <==

    Molecular point group: c1
    Full point group: C_inf_v

    Geometry (in Angstrom), charge = 0, multiplicity = 2:

       Center              X                  Y                   Z               Mass       
    ------------   -----------------  -----------------  -----------------  -----------------
      Gh(AR)          0.000000000000     0.000000000000    -4.036898000000    39.962383122510
         C            0.000000000000     0.000000000000     0.000000000000    12.000000000000
         N            0.000000000000     0.000000000000     1.231991000000    14.003074004780
         O            0.000000000000     0.000000000000    -1.175455000000    15.994914619560

  Running in c1 symmetry.

  Rotational constants: A = ************  B =      0.02427  C =      0.02427 [cm^-1]
  Rotational constants: A = ************  B =    727.57989  C =    727.57989 [MHz]
  Nuclear repulsion =   51.958626714411572

  Charge       = 0
  Multiplicity = 2
  Electrons    = 21
  Nalpha       = 11
  Nbeta        = 10

  ==> Algorithm <==

  SCF Algorithm Type is DF.
  DIIS enabled.
  MOM disabled.
  Fractional occupation disabled.
  Guess Type is GWH.
  Energy threshold   = 1.00e-08
  Density threshold  = 1.00e-08
  Integral threshold = 0.00e+00

  ==> Primary Basis <==

  Basis Set: AUG-CC-PVDZ
    Blend: AUG-CC-PVDZ
    Number of shells: 38
    Number of basis function: 96
    Number of Cartesian functions: 104
    Spherical Harmonics?: true
    Max angular momentum: 2

   => Loading Basis Set <=

    Name: (AUG-CC-PVDZ AUX)
    Role: JKFIT
    Keyword: DF_BASIS_SCF
    atoms 1 entry AR         line   854 file /home/touko/psi4conda/share/psi4/basis/aug-cc-pvdz-jkfit.gbs 
    atoms 2 entry C          line   154 file /home/touko/psi4conda/share/psi4/basis/aug-cc-pvdz-jkfit.gbs 
    atoms 3 entry N          line   212 file /home/touko/psi4conda/share/psi4/basis/aug-cc-pvdz-jkfit.gbs 
    atoms 4 entry O          line   270 file /home/touko/psi4conda/share/psi4/basis/aug-cc-pvdz-jkfit.gbs 

  ==> Pre-Iterations <==

   -------------------------------------------------------
    Irrep   Nso     Nmo     Nalpha   Nbeta   Ndocc  Nsocc
   -------------------------------------------------------
     A         96      96       0       0       0       0
   -------------------------------------------------------
    Total      96      96      11      10      10       1
   -------------------------------------------------------

  ==> Integral Setup <==

  ==> DiskDFJK: Density-Fitted J/K Matrices <==

    J tasked:                  Yes
    K tasked:                  Yes
    wK tasked:                  No
    OpenMP threads:              1
    Integrals threads:           1
    Memory (MB):               375
    Algorithm:                Core
    Integral Cache:           LOAD
    Schwarz Cutoff:          1E-12
    Fitting Condition:       1E-12

   => Auxiliary Basis Set <=

  Basis Set: (AUG-CC-PVDZ AUX)
    Blend: AUG-CC-PVDZ-JKFIT
    Number of shells: 124
    Number of basis function: 386
    Number of Cartesian functions: 453
    Spherical Harmonics?: true
    Max angular momentum: 3

  Minimum eigenvalue in the overlap matrix is 6.2633496958E-04.
  Using Symmetric Orthogonalization.

  SCF Guess: Generalized Wolfsberg-Helmholtz.

  ==> Iterations <==

                           Total Energy        Delta E     RMS |[F,P]|

   @DF-UHF iter   1:  -156.03432173794178   -1.56034e+02   2.05948e-01 
   @DF-UHF iter   2:  -160.69854560945964   -4.66422e+00   3.67803e-02 DIIS
   @DF-UHF iter   3:  -153.82792946501664    6.87062e+00   4.29004e-02 DIIS
   @DF-UHF iter   4:  -166.43783627041705   -1.26099e+01   1.09731e-02 DIIS
   @DF-UHF iter   5:  -167.06370004832078   -6.25864e-01   2.32230e-03 DIIS
   @DF-UHF iter   6:  -167.11083624440769   -4.71362e-02   1.39897e-03 DIIS
   @DF-UHF iter   7:  -167.12685726757718   -1.60210e-02   1.16560e-03 DIIS
   @DF-UHF iter   8:  -167.14391839035923   -1.70611e-02   5.39882e-04 DIIS
   @DF-UHF iter   9:  -167.15074963680590   -6.83125e-03   2.52570e-04 DIIS
   @DF-UHF iter  10:  -167.15211314040124   -1.36350e-03   2.19867e-04 DIIS
   @DF-UHF iter  11:  -167.15303227180488   -9.19131e-04   1.17750e-04 DIIS
   @DF-UHF iter  12:  -167.15329746862224   -2.65197e-04   7.99090e-05 DIIS
   @DF-UHF iter  13:  -167.15349886527690   -2.01397e-04   2.62306e-05 DIIS
   @DF-UHF iter  14:  -167.15351962013511   -2.07549e-05   1.75561e-05 DIIS
   @DF-UHF iter  15:  -167.15352811936847   -8.49923e-06   3.62293e-06 DIIS
   @DF-UHF iter  16:  -167.15352850129946   -3.81931e-07   1.74701e-06 DIIS
   @DF-UHF iter  17:  -167.15352856897161   -6.76721e-08   1.34307e-06 DIIS
   @DF-UHF iter  18:  -167.15352862452460   -5.55530e-08   8.36644e-07 DIIS
   @DF-UHF iter  19:  -167.15352866597757   -4.14530e-08   3.89419e-07 DIIS
   @DF-UHF iter  20:  -167.15352867430971   -8.33214e-09   1.06649e-07 DIIS
   @DF-UHF iter  21:  -167.15352867476665   -4.56936e-10   2.95460e-08 DIIS
   @DF-UHF iter  22:  -167.15352867478509   -1.84457e-11   8.28855e-09 DIIS

  ==> Post-Iterations <==

   @Spin Contamination Metric:   9.205403862E-02
   @S^2 Expected:                7.500000000E-01
   @S^2 Observed:                8.420540386E-01
   @S   Expected:                5.000000000E-01
   @S   Observed:                5.000000000E-01

    Orbital Energies [Eh]
    ---------------------

    Alpha Occupied:                                                       

       1A    -20.707861     2A    -15.662977     3A    -11.424926  
       4A     -1.542451     5A     -1.296035     6A     -0.809545  
       7A     -0.728372     8A     -0.696268     9A     -0.647481  
      10A     -0.553773    11A     -0.495273  

    Alpha Virtual:                                                        

      12A      0.053536    13A      0.075293    14A      0.081304  
      15A      0.084653    16A      0.116702    17A      0.135609  
      18A      0.137867    19A      0.168017    20A      0.177551  
      21A      0.185924    22A      0.220732    23A      0.222897  
      24A      0.235434    25A      0.250312    26A      0.284779  
      27A      0.292411    28A      0.344648    29A      0.361756  
      30A      0.402109    31A      0.402120    32A      0.496574  
      33A      0.573194    34A      0.580335    35A      0.580841  
      36A      0.638129    37A      0.659507    38A      0.674148  
      39A      0.689391    40A      0.726700    41A      0.730920  
      42A      0.752892    43A      0.753912    44A      0.798655  
      45A      0.798658    46A      0.816532    47A      0.874231  
      48A      0.881711    49A      0.902113    50A      0.904445  
      51A      0.915813    52A      0.945554    53A      1.060061  
      54A      1.099875    55A      1.100249    56A      1.204732  
      57A      1.223821    58A      1.286660    59A      1.541715  
      60A      1.548220    61A      1.570485    62A      1.598110  
      63A      1.598391    64A      1.639534    65A      1.709288  
      66A      1.733001    67A      1.975021    68A      2.084469  
      69A      2.105504    70A      2.303405    71A      2.450909  
      72A      2.451185    73A      2.491945    74A      2.492706  
      75A      2.561707    76A      2.645158    77A      2.797136  
      78A      2.868707    79A      2.898641    80A      3.106477  
      81A      3.106478    82A      3.150043    83A      3.150368  
      84A      3.242678    85A      3.282994    86A      3.511983  
      87A      3.540141    88A      3.540948    89A      3.743863  
      90A      3.769067    91A      4.207037    92A      9.226102  
      93A     27.730324    94A     27.730342    95A     27.901516  
      96A    176.880164  

    Beta Occupied:                                                        

       1A    -20.686972     2A    -15.636173     3A    -11.435031  
       4A     -1.497398     5A     -1.202541     6A     -0.784326  
       7A     -0.690120     8A     -0.602998     9A     -0.597406  
      10A     -0.450313  

    Beta Virtual:                                                         

      11A     -0.022472    12A      0.053901    13A      0.075952  
      14A      0.084061    15A      0.085018    16A      0.116940  
      17A      0.138749    18A      0.141436    19A      0.168304  
      20A      0.179612    21A      0.198085    22A      0.221496  
      23A      0.238626    24A      0.251835    25A      0.265559  
      26A      0.296856    27A      0.345420    28A      0.349005  
      29A      0.362610    30A      0.401119    31A      0.401436  
      32A      0.499486    33A      0.573502    34A      0.580531  
      35A      0.580794    36A      0.640925    37A      0.675364  
      38A      0.683297    39A      0.697690    40A      0.727224  
      41A      0.727275    42A      0.775201    43A      0.775505  
      44A      0.799723    45A      0.799740    46A      0.817238  
      47A      0.880351    48A      0.880539    49A      0.908231  
      50A      0.917421    51A      0.924327    52A      0.952073  
      53A      1.066024    54A      1.112114    55A      1.112438  
      56A      1.229761    57A      1.249069    58A      1.298130  
      59A      1.557438    60A      1.581580    61A      1.581807  
      62A      1.583503    63A      1.598843    64A      1.648747  
      65A      1.739646    66A      1.770143    67A      1.975584  
      68A      2.107545    69A      2.110518    70A      2.322027  
      71A      2.451133    72A      2.451220    73A      2.562631  
      74A      2.562892    75A      2.563570    76A      2.655395  
      77A      2.805845    78A      2.909996    79A      2.913142  
      80A      3.106530    81A      3.106530    82A      3.150214  
      83A      3.150377    84A      3.255035    85A      3.291790  
      86A      3.521117    87A      3.584867    88A      3.585345  
      89A      3.776343    90A      3.784169    91A      4.224065  
      92A      9.226104    93A     27.730324    94A     27.730342  
      95A     27.901519    96A    176.880164  

    Final Occupation by Irrep:
              A 
    DOCC [    10 ]
    SOCC [     1 ]

  Energy converged.

  @DF-UHF Final Energy:  -167.15352867478509

   => Energetics <=

    Nuclear Repulsion Energy =             51.9586267144115723
    One-Electron Energy =                -330.0760702500743946
    Two-Electron Energy =                 110.9639148608777361
    Total Energy =                       -167.1535286747850648


  UHF NO Occupations:
  HONO-2 :    9  A 1.9949090
  HONO-1 :   10  A 1.9613271
  HONO-0 :   11  A 1.0000000
  LUNO+0 :   12  A 0.0386729
  LUNO+1 :   13  A 0.0050910
  LUNO+2 :   14  A 0.0017888
  LUNO+3 :   15  A 0.0006461



Properties will be evaluated at   0.000000,   0.000000,   0.000000 [a0]

Properties computed using the SCF density matrix

  Nuclear Dipole Moment: [e a0]
     X:     0.0000      Y:     0.0000      Z:    -1.4734

  Electronic Dipole Moment: [e a0]
     X:     0.0000      Y:     0.0000      Z:     1.1739

  Dipole Moment: [e a0]
     X:     0.0000      Y:     0.0000      Z:    -0.2996     Total:     0.2996

  Dipole Moment: [D]
     X:     0.0000      Y:     0.0000      Z:    -0.7614     Total:     0.7614


*** tstop() called on Touko at Sat Jan  5 23:15:01 2019
Module time:
	user time   =       1.56 seconds =       0.03 minutes
	system time =       0.10 seconds =       0.00 minutes
	total time  =          2 seconds =       0.03 minutes
Total time:
	user time   =       4.53 seconds =       0.08 minutes
	system time =       0.38 seconds =       0.01 minutes
	total time  =          5 seconds =       0.08 minutes
  Constructing Basis Sets for SAPT...

   => Loading Basis Set <=

    Name: (AUG-CC-PVDZ AUX)
    Role: RIFIT
    Keyword: DF_BASIS_SAPT
    atoms 1 entry AR         line   632 file /home/touko/psi4conda/share/psi4/basis/aug-cc-pvdz-ri.gbs 
    atoms 2 entry C          line   112 file /home/touko/psi4conda/share/psi4/basis/aug-cc-pvdz-ri.gbs 
    atoms 3 entry N          line   158 file /home/touko/psi4conda/share/psi4/basis/aug-cc-pvdz-ri.gbs 
    atoms 4 entry O          line   204 file /home/touko/psi4conda/share/psi4/basis/aug-cc-pvdz-ri.gbs 


  //>>>>>>>>>>>>>>>>>>>>>>>>>>>>>>>>>>>//
  //               SAPT0               //
  //<<<<<<<<<<<<<<<<<<<<<<<<<<<<<<<<<<<//


*** tstart() called on Touko
*** at Sat Jan  5 23:15:01 2019

	 --------------------------------------------------------
	                         SAPT                      
	               Rob Parrish and Ed Hohenstein             
	                Open-shell: Jérôme Gonthier              
	 --------------------------------------------------------

  ==> Sizes <==

   => Resources <=

    Memory (MB):               450

   => Orbital Ranges <=

    ------------------
    Range    M_A   M_B
    ------------------
    natom      1     3
    nso       96    96
    ------------------
      Alpha orbitals  
    ------------------
    nmo       96    96
    nocc       9    11
    nvir      87    85
    nfocc      0     0
    naocc      9    11
    navir     87    85
    nfvir      0     0
    ------------------
      Beta orbitals  
    ------------------
    nmo       96    96
    nocc       9    10
    nvir      87    86
    nfocc      0     0
    naocc      9    10
    navir     87    86
    nfvir      0     0
    ------------------

   => Primary Basis Set <=

  Basis Set: AUG-CC-PVDZ
    Blend: AUG-CC-PVDZ
    Number of shells: 38
    Number of basis function: 96
    Number of Cartesian functions: 104
    Spherical Harmonics?: true
    Max angular momentum: 2

  SCF TERMS:

  ==> DiskDFJK: Density-Fitted J/K Matrices <==

    J tasked:                  Yes
    K tasked:                  Yes
    wK tasked:                  No
    OpenMP threads:              1
    Integrals threads:           1
    Memory (MB):               448
    Algorithm:                Core
    Integral Cache:           NONE
    Schwarz Cutoff:          1E-12
    Fitting Condition:       1E-12

   => Auxiliary Basis Set <=

  Basis Set: (AUG-CC-PVDZ AUX)
    Blend: AUG-CC-PVDZ-JKFIT
    Number of shells: 124
    Number of basis function: 386
    Number of Cartesian functions: 453
    Spherical Harmonics?: true
    Max angular momentum: 3

    Elst10,r            =    -0.001673631622 H
    Exch10              =     0.005673701550 H
    Exch10(S^2)         =     0.005653655358 H

    Exch10(S^2) DM      =     0.005653655358 H

    Ind20,u (A<-B)      =    -0.000870847996 H
    Ind20,u (B<-A)      =    -0.000569260653 H
    Ind20,u             =    -0.001440108650 H
    Exch-Ind20,u (A<-B) =     0.000846476079 H
    Exch-Ind20,u (B<-A) =     0.000537375200 H
    Exch-Ind20,u        =     0.001383851279 H

  ==> CPKS Iterations <==

    Maxiter     =          50
    Convergence =   1.000E-09

    -----------------------------------------
    Iter   Monomer A    Monomer B    Time [s]
    -----------------------------------------
    1      1.205E-01    1.147E-01           0
    2      1.222E-02    1.755E-02           0
    3      4.155E-03    7.745E-03           0
    4      8.356E-04    1.888E-03           0
    5      8.593E-05    1.483E-03           1
    6      1.097E-05    1.548E-03           1
    7      1.485E-06    5.885E-04           1
    8      3.934E-07    3.809E-04           1
    9      2.520E-08    1.385E-04           1
    10     1.179E-09    9.447E-05           2
    11     1.491E-10*   5.865E-05           2
    12     1.491E-10*   3.221E-05           2
    13     1.491E-10*   6.031E-06           2
    14     1.491E-10*   9.028E-07           2
    15     1.491E-10*   5.451E-07           2
    16     1.491E-10*   2.110E-07           2
    17     1.491E-10*   6.513E-08           2
    18     1.491E-10*   1.378E-08           2
    19     1.491E-10*   2.972E-09           3
    20     1.491E-10*   6.029E-10*          3
    -----------------------------------------

    Ind20,r (A<-B)      =    -0.001008453389 H
    Ind20,r (B<-A)      =    -0.000657715526 H
    Ind20,r             =    -0.001666168916 H
    Exch-Ind20,r (A<-B) =     0.001006451247 H
    Exch-Ind20,r (B<-A) =     0.000623420245 H
    Exch-Ind20,r        =     0.001629871491 H

  PT2 TERMS:

    Disp20              =    -0.002691487433 H
    Exch-Disp20         =     0.000363319641 H


    SAPT Results 
  --------------------------------------------------------------------------------------------------------
    Electrostatics                 -1.67363162 [mEh]      -1.05021974 [kcal/mol]      -4.39411982 [kJ/mol]
      Elst10,r                     -1.67363162 [mEh]      -1.05021974 [kcal/mol]      -4.39411982 [kJ/mol]

    Exchange                        5.67370155 [mEh]       3.56030162 [kcal/mol]      14.89630342 [kJ/mol]
      Exch10                        5.67370155 [mEh]       3.56030162 [kcal/mol]      14.89630342 [kJ/mol]
      Exch10(S^2)                   5.65365536 [mEh]       3.54772245 [kcal/mol]      14.84367214 [kJ/mol]

    Induction                      -0.33925835 [mEh]      -0.21288784 [kcal/mol]      -0.89072281 [kJ/mol]
      Ind20,r                      -1.66616892 [mEh]      -1.04553682 [kcal/mol]      -4.37452649 [kJ/mol]
      Exch-Ind20,r                  1.62987149 [mEh]       1.02275984 [kcal/mol]       4.27922760 [kJ/mol]
      delta HF,r (2)               -0.30296093 [mEh]      -0.19011086 [kcal/mol]      -0.79542392 [kJ/mol]

    Dispersion                     -2.32816779 [mEh]      -1.46094741 [kcal/mol]      -6.11260454 [kJ/mol]
      Disp20                       -2.69148743 [mEh]      -1.68893393 [kcal/mol]      -7.06650025 [kJ/mol]
      Exch-Disp20                   0.36331964 [mEh]       0.22798653 [kcal/mol]       0.95389572 [kJ/mol]

  Total HF                          3.66081157 [mEh]       2.29719404 [kcal/mol]       9.61146079 [kJ/mol]
  Total SAPT0                       1.33264378 [mEh]       0.83624663 [kcal/mol]       3.49885625 [kJ/mol]
  --------------------------------------------------------------------------------------------------------

*** tstop() called on Touko at Sat Jan  5 23:15:07 2019
Module time:
	user time   =       5.27 seconds =       0.09 minutes
	system time =       0.33 seconds =       0.01 minutes
	total time  =          6 seconds =       0.10 minutes
Total time:
	user time   =       9.86 seconds =       0.16 minutes
	system time =       0.71 seconds =       0.01 minutes
	total time  =         11 seconds =       0.18 minutes
Molecule: Setting geometry variable R to -4.236898
  SAPT does not make use of molecular symmetry, further calculations in C1 point group.

  //>>>>>>>>>>>>>>>>>>>>>>>>>>>>>>>>>>>//
  //              Dimer HF             //
  //<<<<<<<<<<<<<<<<<<<<<<<<<<<<<<<<<<<//


*** tstart() called on Touko
*** at Sat Jan  5 23:15:07 2019

   => Loading Basis Set <=

    Name: AUG-CC-PVDZ
    Role: ORBITAL
    Keyword: BASIS
    atoms 1 entry AR         line   830 file /home/touko/psi4conda/share/psi4/basis/aug-cc-pvdz.gbs 
    atoms 2 entry C          line   178 file /home/touko/psi4conda/share/psi4/basis/aug-cc-pvdz.gbs 
    atoms 3 entry N          line   214 file /home/touko/psi4conda/share/psi4/basis/aug-cc-pvdz.gbs 
    atoms 4 entry O          line   250 file /home/touko/psi4conda/share/psi4/basis/aug-cc-pvdz.gbs 


         ---------------------------------------------------------
                                   SCF
            by Justin Turney, Rob Parrish, Andy Simmonett
                             and Daniel Smith
                              UHF Reference
                        1 Threads,    500 MiB Core
         ---------------------------------------------------------

  ==> Geometry <==

    Molecular point group: c1
    Full point group: C_inf_v

    Geometry (in Angstrom), charge = 0, multiplicity = 2:

       Center              X                  Y                   Z               Mass       
    ------------   -----------------  -----------------  -----------------  -----------------
         AR           0.000000000000     0.000000000000    -4.236898000000    39.962383122510
         C            0.000000000000     0.000000000000     0.000000000000    12.000000000000
         N            0.000000000000     0.000000000000     1.231991000000    14.003074004780
         O            0.000000000000     0.000000000000    -1.175455000000    15.994914619560

  Running in c1 symmetry.

  Rotational constants: A = ************  B =      0.02216  C =      0.02216 [cm^-1]
  Rotational constants: A = ************  B =    664.33349  C =    664.33349 [MHz]
  Nuclear repulsion =  102.530189552282692

  Charge       = 0
  Multiplicity = 2
  Electrons    = 39
  Nalpha       = 20
  Nbeta        = 19

  ==> Algorithm <==

  SCF Algorithm Type is DF.
  DIIS enabled.
  MOM disabled.
  Fractional occupation disabled.
  Guess Type is GWH.
  Energy threshold   = 1.00e-08
  Density threshold  = 1.00e-08
  Integral threshold = 0.00e+00

  ==> Primary Basis <==

  Basis Set: AUG-CC-PVDZ
    Blend: AUG-CC-PVDZ
    Number of shells: 38
    Number of basis function: 96
    Number of Cartesian functions: 104
    Spherical Harmonics?: true
    Max angular momentum: 2

   => Loading Basis Set <=

    Name: (AUG-CC-PVDZ AUX)
    Role: JKFIT
    Keyword: DF_BASIS_SCF
    atoms 1 entry AR         line   854 file /home/touko/psi4conda/share/psi4/basis/aug-cc-pvdz-jkfit.gbs 
    atoms 2 entry C          line   154 file /home/touko/psi4conda/share/psi4/basis/aug-cc-pvdz-jkfit.gbs 
    atoms 3 entry N          line   212 file /home/touko/psi4conda/share/psi4/basis/aug-cc-pvdz-jkfit.gbs 
    atoms 4 entry O          line   270 file /home/touko/psi4conda/share/psi4/basis/aug-cc-pvdz-jkfit.gbs 

  ==> Pre-Iterations <==

   -------------------------------------------------------
    Irrep   Nso     Nmo     Nalpha   Nbeta   Ndocc  Nsocc
   -------------------------------------------------------
     A         96      96       0       0       0       0
   -------------------------------------------------------
    Total      96      96      20      19      19       1
   -------------------------------------------------------

  ==> Integral Setup <==

  ==> DiskDFJK: Density-Fitted J/K Matrices <==

    J tasked:                  Yes
    K tasked:                  Yes
    wK tasked:                  No
    OpenMP threads:              1
    Integrals threads:           1
    Memory (MB):               375
    Algorithm:                Core
    Integral Cache:           SAVE
    Schwarz Cutoff:          1E-12
    Fitting Condition:       1E-12

   => Auxiliary Basis Set <=

  Basis Set: (AUG-CC-PVDZ AUX)
    Blend: AUG-CC-PVDZ-JKFIT
    Number of shells: 124
    Number of basis function: 386
    Number of Cartesian functions: 453
    Spherical Harmonics?: true
    Max angular momentum: 3

  Minimum eigenvalue in the overlap matrix is 6.3185559874E-04.
  Using Symmetric Orthogonalization.

  SCF Guess: Generalized Wolfsberg-Helmholtz.

  ==> Iterations <==

                           Total Energy        Delta E     RMS |[F,P]|

   @DF-UHF iter   1:  -686.00244519569389   -6.86002e+02   4.37776e-02 
   @DF-UHF iter   2:  -651.92397940864316    3.40785e+01   6.87547e-02 DIIS
   @DF-UHF iter   3:  -691.38044750987956   -3.94565e+01   1.41974e-02 DIIS
   @DF-UHF iter   4:  -692.47367498542644   -1.09323e+00   1.61151e-02 DIIS
   @DF-UHF iter   5:  -693.34431377871374   -8.70639e-01   7.05458e-03 DIIS
   @DF-UHF iter   6:  -693.87769564374821   -5.33382e-01   3.52623e-03 DIIS
   @DF-UHF iter   7:  -693.91924420583109   -4.15486e-02   2.08082e-03 DIIS
   @DF-UHF iter   8:  -693.93715092790490   -1.79067e-02   1.28451e-03 DIIS
   @DF-UHF iter   9:  -693.94694794355746   -9.79702e-03   5.69659e-04 DIIS
   @DF-UHF iter  10:  -693.95013178362569   -3.18384e-03   2.28353e-04 DIIS
   @DF-UHF iter  11:  -693.95138019970977   -1.24842e-03   1.51992e-04 DIIS
   @DF-UHF iter  12:  -693.95216010321042   -7.79904e-04   1.15313e-04 DIIS
   @DF-UHF iter  13:  -693.95275030774246   -5.90205e-04   4.78471e-05 DIIS
   @DF-UHF iter  14:  -693.95285509905602   -1.04791e-04   1.40186e-05 DIIS
   @DF-UHF iter  15:  -693.95286238701078   -7.28795e-06   4.42021e-06 DIIS
   @DF-UHF iter  16:  -693.95286294136349   -5.54353e-07   1.32930e-06 DIIS
   @DF-UHF iter  17:  -693.95286298371150   -4.23480e-08   6.90092e-07 DIIS
   @DF-UHF iter  18:  -693.95286299880854   -1.50970e-08   4.70478e-07 DIIS
   @DF-UHF iter  19:  -693.95286300890643   -1.00979e-08   2.68926e-07 DIIS
   @DF-UHF iter  20:  -693.95286301340582   -4.49938e-09   9.08468e-08 DIIS
   @DF-UHF iter  21:  -693.95286301369197   -2.86150e-10   3.14801e-08 DIIS
   @DF-UHF iter  22:  -693.95286301371573   -2.37605e-11   1.41834e-08 DIIS
   @DF-UHF iter  23:  -693.95286301371880   -3.06954e-12   4.46659e-09 DIIS

  ==> Post-Iterations <==

   @Spin Contamination Metric:   9.168618204E-02
   @S^2 Expected:                7.500000000E-01
   @S^2 Observed:                8.416861820E-01
   @S   Expected:                5.000000000E-01
   @S   Observed:                5.000000000E-01

    Orbital Energies [Eh]
    ---------------------

    Alpha Occupied:                                                       

       1A   -118.606636     2A    -20.707486     3A    -15.663304  
       4A    -12.318878     5A    -11.425189     6A     -9.567491  
       7A     -9.567483     8A     -9.567454     9A     -1.542736  
      10A     -1.296403    11A     -1.275610    12A     -0.811357  
      13A     -0.728618    14A     -0.696576    15A     -0.648005  
      16A     -0.589188    17A     -0.589046    18A     -0.587427  
      19A     -0.554002    20A     -0.495554  

    Alpha Virtual:                                                        

      21A      0.056442    22A      0.083304    23A      0.087024  
      24A      0.091890    25A      0.137634    26A      0.156642  
      27A      0.158788    28A      0.177798    29A      0.181306  
      30A      0.186428    31A      0.219986    32A      0.230882  
      33A      0.248307    34A      0.277090    35A      0.279166  
      36A      0.287775    37A      0.344140    38A      0.375820  
      39A      0.401751    40A      0.401759    41A      0.500331  
      42A      0.543546    43A      0.543547    44A      0.561638  
      45A      0.562601    46A      0.626119    47A      0.659297  
      48A      0.673874    49A      0.676181    50A      0.753594  
      51A      0.754265    52A      0.776013    53A      0.781291  
      54A      0.850393    55A      0.877552    56A      0.881433  
      57A      0.897127    58A      0.982464    59A      0.983410  
      60A      0.998740    61A      1.072151    62A      1.097980  
      63A      1.098423    64A      1.194093    65A      1.213037  
      66A      1.271096    67A      1.417333    68A      1.472266  
      69A      1.531739    70A      1.559927    71A      1.596108  
      72A      1.596379    73A      1.614938    74A      1.614974  
      75A      1.639812    76A      1.640777    77A      1.645234  
      78A      1.726421    79A      1.746172    80A      1.838289  
      81A      2.083753    82A      2.104834    83A      2.304447  
      84A      2.491629    85A      2.492378    86A      2.620452  
      87A      2.783559    88A      2.867708    89A      2.897752  
      90A      3.256431    91A      3.482470    92A      3.539087  
      93A      3.539313    94A      3.740400    95A      3.765629  
      96A      4.144464  

    Beta Occupied:                                                        

       1A   -118.606640     2A    -20.686676     3A    -15.636500  
       4A    -12.318883     5A    -11.435266     6A     -9.567489  
       7A     -9.567487     8A     -9.567472     9A     -1.497827  
      10A     -1.275653    11A     -1.202864    12A     -0.786559  
      13A     -0.690491    14A     -0.603972    15A     -0.598198  
      16A     -0.589055    17A     -0.588748    18A     -0.586752  
      19A     -0.450628  

    Beta Virtual:                                                         

      20A     -0.022859    21A      0.056946    22A      0.086905  
      23A      0.087542    24A      0.092516    25A      0.137675  
      26A      0.159414    27A      0.161874    28A      0.180426  
      29A      0.181811    30A      0.198974    31A      0.233086  
      32A      0.250220    33A      0.256605    34A      0.277368  
      35A      0.293177    36A      0.345244    37A      0.348726  
      38A      0.376589    39A      0.400774    40A      0.401176  
      41A      0.503351    42A      0.543558    43A      0.543558  
      44A      0.560785    45A      0.561763    46A      0.627539  
      47A      0.675530    48A      0.684852    49A      0.685202  
      50A      0.774590    51A      0.776679    52A      0.776933  
      53A      0.777269    54A      0.854590    55A      0.880563  
      56A      0.898485    57A      0.905523    58A      0.983445  
      59A      0.983529    60A      1.008280    61A      1.076350  
      62A      1.110237    63A      1.110540    64A      1.218843  
      65A      1.238393    66A      1.279272    67A      1.418320  
      68A      1.481315    69A      1.573603    70A      1.580305  
      71A      1.580415    72A      1.588725    73A      1.614302  
      74A      1.614304    75A      1.645361    76A      1.649621  
      77A      1.650150    78A      1.752374    79A      1.779211  
      80A      1.840295    81A      2.106859    82A      2.109809  
      83A      2.322966    84A      2.562326    85A      2.562564  
      86A      2.631390    87A      2.793342    88A      2.909157  
      89A      2.912325    90A      3.276494    91A      3.491673  
      92A      3.583733    93A      3.584060    94A      3.772863  
      95A      3.780708    96A      4.162086  

    Final Occupation by Irrep:
              A 
    DOCC [    19 ]
    SOCC [     1 ]

  Energy converged.

  @DF-UHF Final Energy:  -693.95286301371880

   => Energetics <=

    Nuclear Repulsion Energy =            102.5301895522826925
    One-Electron Energy =               -1159.4705023403796531
    Two-Electron Energy =                 362.9874497743782058
    Total Energy =                       -693.9528630137186838


  UHF NO Occupations:
  HONO-2 :   18  A 1.9949054
  HONO-1 :   19  A 1.9615096
  HONO-0 :   20  A 1.0000000
  LUNO+0 :   21  A 0.0384904
  LUNO+1 :   22  A 0.0050946
  LUNO+2 :   23  A 0.0017886
  LUNO+3 :   24  A 0.0006422



Properties will be evaluated at   0.000000,   0.000000,   0.000000 [a0]

Properties computed using the SCF density matrix

  Nuclear Dipole Moment: [e a0]
     X:     0.0000      Y:     0.0000      Z:  -145.5918

  Electronic Dipole Moment: [e a0]
     X:    -0.0000      Y:    -0.0000      Z:   145.3207

  Dipole Moment: [e a0]
     X:    -0.0000      Y:    -0.0000      Z:    -0.2712     Total:     0.2712

  Dipole Moment: [D]
     X:    -0.0000      Y:    -0.0000      Z:    -0.6892     Total:     0.6892


*** tstop() called on Touko at Sat Jan  5 23:15:09 2019
Module time:
	user time   =       2.25 seconds =       0.04 minutes
	system time =       0.06 seconds =       0.00 minutes
	total time  =          2 seconds =       0.03 minutes
Total time:
	user time   =      12.11 seconds =       0.20 minutes
	system time =       0.77 seconds =       0.01 minutes
	total time  =         13 seconds =       0.22 minutes

  //>>>>>>>>>>>>>>>>>>>>>>>>>>>>>>>>>>>//
  //            Monomer A HF           //
  //<<<<<<<<<<<<<<<<<<<<<<<<<<<<<<<<<<<//


*** tstart() called on Touko
*** at Sat Jan  5 23:15:09 2019

   => Loading Basis Set <=

    Name: AUG-CC-PVDZ
    Role: ORBITAL
    Keyword: BASIS
    atoms 1 entry AR         line   830 file /home/touko/psi4conda/share/psi4/basis/aug-cc-pvdz.gbs 
    atoms 2 entry C          line   178 file /home/touko/psi4conda/share/psi4/basis/aug-cc-pvdz.gbs 
    atoms 3 entry N          line   214 file /home/touko/psi4conda/share/psi4/basis/aug-cc-pvdz.gbs 
    atoms 4 entry O          line   250 file /home/touko/psi4conda/share/psi4/basis/aug-cc-pvdz.gbs 


         ---------------------------------------------------------
                                   SCF
            by Justin Turney, Rob Parrish, Andy Simmonett
                             and Daniel Smith
                              UHF Reference
                        1 Threads,    500 MiB Core
         ---------------------------------------------------------

  ==> Geometry <==

    Molecular point group: c1
    Full point group: C_inf_v

    Geometry (in Angstrom), charge = 0, multiplicity = 1:

       Center              X                  Y                   Z               Mass       
    ------------   -----------------  -----------------  -----------------  -----------------
         AR           0.000000000000     0.000000000000    -4.236898000000    39.962383122510
      Gh(C)           0.000000000000     0.000000000000     0.000000000000    12.000000000000
      Gh(N)           0.000000000000     0.000000000000     1.231991000000    14.003074004780
      Gh(O)           0.000000000000     0.000000000000    -1.175455000000    15.994914619560

  Running in c1 symmetry.

  Rotational constants: A = ************  B =      0.02216  C =      0.02216 [cm^-1]
  Rotational constants: A = ************  B =    664.33349  C =    664.33349 [MHz]
  Nuclear repulsion =    0.000000000000000

  Charge       = 0
  Multiplicity = 1
  Electrons    = 18
  Nalpha       = 9
  Nbeta        = 9

  ==> Algorithm <==

  SCF Algorithm Type is DF.
  DIIS enabled.
  MOM disabled.
  Fractional occupation disabled.
  Guess Type is GWH.
  Energy threshold   = 1.00e-08
  Density threshold  = 1.00e-08
  Integral threshold = 0.00e+00

  ==> Primary Basis <==

  Basis Set: AUG-CC-PVDZ
    Blend: AUG-CC-PVDZ
    Number of shells: 38
    Number of basis function: 96
    Number of Cartesian functions: 104
    Spherical Harmonics?: true
    Max angular momentum: 2

   => Loading Basis Set <=

    Name: (AUG-CC-PVDZ AUX)
    Role: JKFIT
    Keyword: DF_BASIS_SCF
    atoms 1 entry AR         line   854 file /home/touko/psi4conda/share/psi4/basis/aug-cc-pvdz-jkfit.gbs 
    atoms 2 entry C          line   154 file /home/touko/psi4conda/share/psi4/basis/aug-cc-pvdz-jkfit.gbs 
    atoms 3 entry N          line   212 file /home/touko/psi4conda/share/psi4/basis/aug-cc-pvdz-jkfit.gbs 
    atoms 4 entry O          line   270 file /home/touko/psi4conda/share/psi4/basis/aug-cc-pvdz-jkfit.gbs 

  ==> Pre-Iterations <==

   -------------------------------------------------------
    Irrep   Nso     Nmo     Nalpha   Nbeta   Ndocc  Nsocc
   -------------------------------------------------------
     A         96      96       0       0       0       0
   -------------------------------------------------------
    Total      96      96       9       9       9       0
   -------------------------------------------------------

  ==> Integral Setup <==

  ==> DiskDFJK: Density-Fitted J/K Matrices <==

    J tasked:                  Yes
    K tasked:                  Yes
    wK tasked:                  No
    OpenMP threads:              1
    Integrals threads:           1
    Memory (MB):               375
    Algorithm:                Core
    Integral Cache:           LOAD
    Schwarz Cutoff:          1E-12
    Fitting Condition:       1E-12

   => Auxiliary Basis Set <=

  Basis Set: (AUG-CC-PVDZ AUX)
    Blend: AUG-CC-PVDZ-JKFIT
    Number of shells: 124
    Number of basis function: 386
    Number of Cartesian functions: 453
    Spherical Harmonics?: true
    Max angular momentum: 3

  Minimum eigenvalue in the overlap matrix is 6.3185559874E-04.
  Using Symmetric Orthogonalization.

  SCF Guess: Generalized Wolfsberg-Helmholtz.

  ==> Iterations <==

                           Total Energy        Delta E     RMS |[F,P]|

   @DF-UHF iter   1:  -492.93933211249146   -4.92939e+02   1.11672e-01 
   @DF-UHF iter   2:  -525.67053392043749   -3.27312e+01   1.37114e-02 DIIS
   @DF-UHF iter   3:  -526.74892042615897   -1.07839e+00   3.78798e-03 DIIS
   @DF-UHF iter   4:  -526.80077514918469   -5.18547e-02   2.32308e-04 DIIS
   @DF-UHF iter   5:  -526.80107019184982   -2.95043e-04   2.71451e-05 DIIS
   @DF-UHF iter   6:  -526.80107666044773   -6.46860e-06   6.04489e-06 DIIS
   @DF-UHF iter   7:  -526.80107693329512   -2.72847e-07   1.01212e-06 DIIS
   @DF-UHF iter   8:  -526.80107694281321   -9.51809e-09   2.68662e-07 DIIS
   @DF-UHF iter   9:  -526.80107694386072   -1.04751e-09   2.15186e-08 DIIS
   @DF-UHF iter  10:  -526.80107694386481   -4.09273e-12   3.34408e-09 DIIS

  ==> Post-Iterations <==

   @Spin Contamination Metric:  -3.019806627E-14
   @S^2 Expected:                0.000000000E+00
   @S^2 Observed:               -3.019806627E-14
   @S   Expected:                0.000000000E+00
   @S   Observed:                0.000000000E+00

    Orbital Energies [Eh]
    ---------------------

    Alpha Occupied:                                                       

       1A   -118.610697     2A    -12.322762     3A     -9.571380  
       4A     -9.571365     5A     -9.571365     6A     -1.278776  
       7A     -0.592191     8A     -0.592118     9A     -0.592118  

    Alpha Virtual:                                                        

      10A      0.043216    11A      0.078237    12A      0.083192  
      13A      0.083192    14A      0.133933    15A      0.151849  
      16A      0.151849    17A      0.171223    18A      0.183942  
      19A      0.191327    20A      0.191327    21A      0.235600  
      22A      0.247333    23A      0.247333    24A      0.278033  
      25A      0.345649    26A      0.486851    27A      0.486851  
      28A      0.491725    29A      0.507445    30A      0.507445  
      31A      0.541580    32A      0.541580    33A      0.550748  
      34A      0.550748    35A      0.581239    36A      0.606664  
      37A      0.634377    38A      0.634377    39A      0.644988  
      40A      0.848765    41A      0.855642    42A      0.855642  
      43A      0.881106    44A      0.881106    45A      0.948142  
      46A      0.975613    47A      0.975613    48A      1.076830  
      49A      1.076830    50A      1.084777    51A      1.148847  
      52A      1.226343    53A      1.226343    54A      1.230726  
      55A      1.303208    56A      1.303208    57A      1.338740  
      58A      1.407258    59A      1.505740    60A      1.505740  
      61A      1.576945    62A      1.611036    63A      1.611036  
      64A      1.650912    65A      1.650912    66A      1.836978  
      67A      2.223786    68A      2.223786    69A      2.735114  
      70A      2.759676    71A      2.759676    72A      3.057883  
      73A      3.210836    74A      3.303974    75A      3.303974  
      76A      3.385834    77A      3.385834    78A      3.687853  
      79A      3.752308    80A      3.752308    81A      4.337373  
      82A      4.601616    83A      4.634091    84A      4.634091  
      85A      4.887217    86A      4.887217    87A      5.096338  
      88A      5.096338    89A      5.295023    90A      5.991390  
      91A      5.991390    92A      6.521162    93A      7.605485  
      94A     18.795308    95A     25.250480    96A     33.534135  

    Beta Occupied:                                                        

       1A   -118.610697     2A    -12.322762     3A     -9.571380  
       4A     -9.571365     5A     -9.571365     6A     -1.278776  
       7A     -0.592191     8A     -0.592118     9A     -0.592118  

    Beta Virtual:                                                         

      10A      0.043216    11A      0.078237    12A      0.083192  
      13A      0.083192    14A      0.133933    15A      0.151849  
      16A      0.151849    17A      0.171223    18A      0.183942  
      19A      0.191327    20A      0.191327    21A      0.235600  
      22A      0.247333    23A      0.247333    24A      0.278033  
      25A      0.345649    26A      0.486851    27A      0.486851  
      28A      0.491725    29A      0.507445    30A      0.507445  
      31A      0.541580    32A      0.541580    33A      0.550748  
      34A      0.550748    35A      0.581239    36A      0.606664  
      37A      0.634377    38A      0.634377    39A      0.644988  
      40A      0.848765    41A      0.855642    42A      0.855642  
      43A      0.881106    44A      0.881106    45A      0.948142  
      46A      0.975613    47A      0.975613    48A      1.076830  
      49A      1.076830    50A      1.084777    51A      1.148847  
      52A      1.226343    53A      1.226343    54A      1.230726  
      55A      1.303208    56A      1.303208    57A      1.338740  
      58A      1.407258    59A      1.505740    60A      1.505740  
      61A      1.576945    62A      1.611036    63A      1.611036  
      64A      1.650912    65A      1.650912    66A      1.836978  
      67A      2.223786    68A      2.223786    69A      2.735114  
      70A      2.759676    71A      2.759676    72A      3.057883  
      73A      3.210836    74A      3.303974    75A      3.303974  
      76A      3.385834    77A      3.385834    78A      3.687853  
      79A      3.752308    80A      3.752308    81A      4.337373  
      82A      4.601616    83A      4.634091    84A      4.634091  
      85A      4.887217    86A      4.887217    87A      5.096338  
      88A      5.096338    89A      5.295023    90A      5.991390  
      91A      5.991390    92A      6.521162    93A      7.605485  
      94A     18.795308    95A     25.250480    96A     33.534135  

    Final Occupation by Irrep:
              A 
    DOCC [     9 ]
    SOCC [     0 ]

  Energy converged.

  @DF-UHF Final Energy:  -526.80107694386481

   => Energetics <=

    Nuclear Repulsion Energy =              0.0000000000000000
    One-Electron Energy =                -728.1966106832165906
    Two-Electron Energy =                 201.3955337393517482
    Total Energy =                       -526.8010769438648140


  UHF NO Occupations:
  HONO-2 :    7  A 2.0000000
  HONO-1 :    8  A 2.0000000
  HONO-0 :    9  A 2.0000000
  LUNO+0 :   10  A 0.0000000
  LUNO+1 :   11  A 0.0000000
  LUNO+2 :   12  A 0.0000000
  LUNO+3 :   13  A 0.0000000



Properties will be evaluated at   0.000000,   0.000000,   0.000000 [a0]

Properties computed using the SCF density matrix

  Nuclear Dipole Moment: [e a0]
     X:     0.0000      Y:     0.0000      Z:  -144.1184

  Electronic Dipole Moment: [e a0]
     X:    -0.0000      Y:     0.0000      Z:   144.1185

  Dipole Moment: [e a0]
     X:    -0.0000      Y:     0.0000      Z:     0.0001     Total:     0.0001

  Dipole Moment: [D]
     X:    -0.0000      Y:     0.0000      Z:     0.0002     Total:     0.0002


*** tstop() called on Touko at Sat Jan  5 23:15:10 2019
Module time:
	user time   =       0.84 seconds =       0.01 minutes
	system time =       0.04 seconds =       0.00 minutes
	total time  =          1 seconds =       0.02 minutes
Total time:
	user time   =      12.95 seconds =       0.22 minutes
	system time =       0.81 seconds =       0.01 minutes
	total time  =         14 seconds =       0.23 minutes

  //>>>>>>>>>>>>>>>>>>>>>>>>>>>>>>>>>>>//
  //            Monomer B HF           //
  //<<<<<<<<<<<<<<<<<<<<<<<<<<<<<<<<<<<//


*** tstart() called on Touko
*** at Sat Jan  5 23:15:10 2019

   => Loading Basis Set <=

    Name: AUG-CC-PVDZ
    Role: ORBITAL
    Keyword: BASIS
    atoms 1 entry AR         line   830 file /home/touko/psi4conda/share/psi4/basis/aug-cc-pvdz.gbs 
    atoms 2 entry C          line   178 file /home/touko/psi4conda/share/psi4/basis/aug-cc-pvdz.gbs 
    atoms 3 entry N          line   214 file /home/touko/psi4conda/share/psi4/basis/aug-cc-pvdz.gbs 
    atoms 4 entry O          line   250 file /home/touko/psi4conda/share/psi4/basis/aug-cc-pvdz.gbs 


         ---------------------------------------------------------
                                   SCF
            by Justin Turney, Rob Parrish, Andy Simmonett
                             and Daniel Smith
                              UHF Reference
                        1 Threads,    500 MiB Core
         ---------------------------------------------------------

  ==> Geometry <==

    Molecular point group: c1
    Full point group: C_inf_v

    Geometry (in Angstrom), charge = 0, multiplicity = 2:

       Center              X                  Y                   Z               Mass       
    ------------   -----------------  -----------------  -----------------  -----------------
      Gh(AR)          0.000000000000     0.000000000000    -4.236898000000    39.962383122510
         C            0.000000000000     0.000000000000     0.000000000000    12.000000000000
         N            0.000000000000     0.000000000000     1.231991000000    14.003074004780
         O            0.000000000000     0.000000000000    -1.175455000000    15.994914619560

  Running in c1 symmetry.

  Rotational constants: A = ************  B =      0.02216  C =      0.02216 [cm^-1]
  Rotational constants: A = ************  B =    664.33349  C =    664.33349 [MHz]
  Nuclear repulsion =   51.958626714411572

  Charge       = 0
  Multiplicity = 2
  Electrons    = 21
  Nalpha       = 11
  Nbeta        = 10

  ==> Algorithm <==

  SCF Algorithm Type is DF.
  DIIS enabled.
  MOM disabled.
  Fractional occupation disabled.
  Guess Type is GWH.
  Energy threshold   = 1.00e-08
  Density threshold  = 1.00e-08
  Integral threshold = 0.00e+00

  ==> Primary Basis <==

  Basis Set: AUG-CC-PVDZ
    Blend: AUG-CC-PVDZ
    Number of shells: 38
    Number of basis function: 96
    Number of Cartesian functions: 104
    Spherical Harmonics?: true
    Max angular momentum: 2

   => Loading Basis Set <=

    Name: (AUG-CC-PVDZ AUX)
    Role: JKFIT
    Keyword: DF_BASIS_SCF
    atoms 1 entry AR         line   854 file /home/touko/psi4conda/share/psi4/basis/aug-cc-pvdz-jkfit.gbs 
    atoms 2 entry C          line   154 file /home/touko/psi4conda/share/psi4/basis/aug-cc-pvdz-jkfit.gbs 
    atoms 3 entry N          line   212 file /home/touko/psi4conda/share/psi4/basis/aug-cc-pvdz-jkfit.gbs 
    atoms 4 entry O          line   270 file /home/touko/psi4conda/share/psi4/basis/aug-cc-pvdz-jkfit.gbs 

  ==> Pre-Iterations <==

   -------------------------------------------------------
    Irrep   Nso     Nmo     Nalpha   Nbeta   Ndocc  Nsocc
   -------------------------------------------------------
     A         96      96       0       0       0       0
   -------------------------------------------------------
    Total      96      96      11      10      10       1
   -------------------------------------------------------

  ==> Integral Setup <==

  ==> DiskDFJK: Density-Fitted J/K Matrices <==

    J tasked:                  Yes
    K tasked:                  Yes
    wK tasked:                  No
    OpenMP threads:              1
    Integrals threads:           1
    Memory (MB):               375
    Algorithm:                Core
    Integral Cache:           LOAD
    Schwarz Cutoff:          1E-12
    Fitting Condition:       1E-12

   => Auxiliary Basis Set <=

  Basis Set: (AUG-CC-PVDZ AUX)
    Blend: AUG-CC-PVDZ-JKFIT
    Number of shells: 124
    Number of basis function: 386
    Number of Cartesian functions: 453
    Spherical Harmonics?: true
    Max angular momentum: 3

  Minimum eigenvalue in the overlap matrix is 6.3185559874E-04.
  Using Symmetric Orthogonalization.

  SCF Guess: Generalized Wolfsberg-Helmholtz.

  ==> Iterations <==

                           Total Energy        Delta E     RMS |[F,P]|

   @DF-UHF iter   1:  -156.08775193108073   -1.56088e+02   2.04815e-01 
   @DF-UHF iter   2:  -160.95605934752732   -4.86831e+00   3.61654e-02 DIIS
   @DF-UHF iter   3:  -154.24414978554154    6.71191e+00   4.23155e-02 DIIS
   @DF-UHF iter   4:  -166.45028327752757   -1.22061e+01   1.08517e-02 DIIS
   @DF-UHF iter   5:  -167.06463638547118   -6.14353e-01   2.25176e-03 DIIS
   @DF-UHF iter   6:  -167.11084280939741   -4.62064e-02   1.37878e-03 DIIS
   @DF-UHF iter   7:  -167.12661150090258   -1.57687e-02   1.16418e-03 DIIS
   @DF-UHF iter   8:  -167.14363137795615   -1.70199e-02   5.50121e-04 DIIS
   @DF-UHF iter   9:  -167.15070083909382   -7.06946e-03   2.53056e-04 DIIS
   @DF-UHF iter  10:  -167.15202913277446   -1.32829e-03   2.23651e-04 DIIS
   @DF-UHF iter  11:  -167.15299334843667   -9.64216e-04   1.19578e-04 DIIS
   @DF-UHF iter  12:  -167.15325407213447   -2.60724e-04   8.19830e-05 DIIS
   @DF-UHF iter  13:  -167.15346243185482   -2.08360e-04   2.61745e-05 DIIS
   @DF-UHF iter  14:  -167.15348323405061   -2.08022e-05   1.74427e-05 DIIS
   @DF-UHF iter  15:  -167.15349154864003   -8.31459e-06   3.60202e-06 DIIS
   @DF-UHF iter  16:  -167.15349193982993   -3.91190e-07   1.75115e-06 DIIS
   @DF-UHF iter  17:  -167.15349201031287   -7.04829e-08   1.33101e-06 DIIS
   @DF-UHF iter  18:  -167.15349206751969   -5.72068e-08   8.45560e-07 DIIS
   @DF-UHF iter  19:  -167.15349210996345   -4.24438e-08   3.78741e-07 DIIS
   @DF-UHF iter  20:  -167.15349211765948   -7.69603e-09   9.94428e-08 DIIS
   @DF-UHF iter  21:  -167.15349211805372   -3.94238e-10   2.89227e-08 DIIS
   @DF-UHF iter  22:  -167.15349211807140   -1.76783e-11   8.01223e-09 DIIS

  ==> Post-Iterations <==

   @Spin Contamination Metric:   9.202773261E-02
   @S^2 Expected:                7.500000000E-01
   @S^2 Observed:                8.420277326E-01
   @S   Expected:                5.000000000E-01
   @S   Observed:                5.000000000E-01

    Orbital Energies [Eh]
    ---------------------

    Alpha Occupied:                                                       

       1A    -20.707862     2A    -15.662990     3A    -11.424959  
       4A     -1.542459     5A     -1.296053     6A     -0.809532  
       7A     -0.728383     8A     -0.696283     9A     -0.647494  
      10A     -0.553785    11A     -0.495286  

    Alpha Virtual:                                                        

      12A      0.053689    13A      0.075666    14A      0.081705  
      15A      0.085096    16A      0.115582    17A      0.133859  
      18A      0.135911    19A      0.164908    20A      0.177636  
      21A      0.185889    22A      0.218519    23A      0.220559  
      24A      0.233070    25A      0.249899    26A      0.283742  
      27A      0.291609    28A      0.344208    29A      0.354452  
      30A      0.402113    31A      0.402128    32A      0.496860  
      33A      0.569804    34A      0.579474    35A      0.579868  
      36A      0.631521    37A      0.659621    38A      0.674453  
      39A      0.680773    40A      0.721232    41A      0.725107  
      42A      0.753460    43A      0.754378    44A      0.798178  
      45A      0.798179    46A      0.826562    47A      0.875688  
      48A      0.880670    49A      0.885303    50A      0.892534  
      51A      0.906075    52A      0.948350    53A      1.047263  
      54A      1.099094    55A      1.099454    56A      1.197898  
      57A      1.216992    58A      1.268691    59A      1.507376  
      60A      1.538836    61A      1.568018    62A      1.597924  
      63A      1.598277    64A      1.634751    65A      1.705700  
      66A      1.729279    67A      1.965412    68A      2.083416  
      69A      2.104495    70A      2.295007    71A      2.447063  
      72A      2.447233    73A      2.491932    74A      2.492640  
      75A      2.533265    76A      2.624041    77A      2.780643  
      78A      2.868176    79A      2.898190    80A      3.105995  
      81A      3.105995    82A      3.138167    83A      3.138357  
      84A      3.225729    85A      3.266901    86A      3.495688  
      87A      3.539521    88A      3.539923    89A      3.741307  
      90A      3.766552    91A      4.160879    92A      9.217639  
      93A     27.726618    94A     27.726631    95A     27.844718  
      96A    176.868325  

    Beta Occupied:                                                        

       1A    -20.686975     2A    -15.636186     3A    -11.435061  
[...]
*** tstop() called on Touko at Sat Jan  5 23:17:26 2019
Module time:
	user time   =       0.88 seconds =       0.01 minutes
	system time =       0.08 seconds =       0.00 minutes
	total time  =          1 seconds =       0.02 minutes
Total time:
	user time   =     141.11 seconds =       2.35 minutes
	system time =       7.86 seconds =       0.13 minutes
	total time  =        150 seconds =       2.50 minutes

  //>>>>>>>>>>>>>>>>>>>>>>>>>>>>>>>>>>>//
  //            Monomer B HF           //
  //<<<<<<<<<<<<<<<<<<<<<<<<<<<<<<<<<<<//


*** tstart() called on Touko
*** at Sat Jan  5 23:17:26 2019

   => Loading Basis Set <=

    Name: AUG-CC-PVDZ
    Role: ORBITAL
    Keyword: BASIS
    atoms 1 entry AR         line   830 file /home/touko/psi4conda/share/psi4/basis/aug-cc-pvdz.gbs 
    atoms 2 entry C          line   178 file /home/touko/psi4conda/share/psi4/basis/aug-cc-pvdz.gbs 
    atoms 3 entry N          line   214 file /home/touko/psi4conda/share/psi4/basis/aug-cc-pvdz.gbs 
    atoms 4 entry O          line   250 file /home/touko/psi4conda/share/psi4/basis/aug-cc-pvdz.gbs 


         ---------------------------------------------------------
                                   SCF
            by Justin Turney, Rob Parrish, Andy Simmonett
                             and Daniel Smith
                              UHF Reference
                        1 Threads,    500 MiB Core
         ---------------------------------------------------------

  ==> Geometry <==

    Molecular point group: c1
    Full point group: C_inf_v

    Geometry (in Angstrom), charge = 0, multiplicity = 2:

       Center              X                  Y                   Z               Mass       
    ------------   -----------------  -----------------  -----------------  -----------------
      Gh(AR)          0.000000000000     0.000000000000    -7.036898000000    39.962383122510
         C            0.000000000000     0.000000000000     0.000000000000    12.000000000000
         N            0.000000000000     0.000000000000     1.231991000000    14.003074004780
         O            0.000000000000     0.000000000000    -1.175455000000    15.994914619560

  Running in c1 symmetry.

  Rotational constants: A = ************  B =      0.00834  C =      0.00834 [cm^-1]
  Rotational constants: A = ************  B =    249.91438  C =    249.91438 [MHz]
  Nuclear repulsion =   51.958626714411572

  Charge       = 0
  Multiplicity = 2
  Electrons    = 21
  Nalpha       = 11
  Nbeta        = 10

  ==> Algorithm <==

  SCF Algorithm Type is DF.
  DIIS enabled.
  MOM disabled.
  Fractional occupation disabled.
  Guess Type is GWH.
  Energy threshold   = 1.00e-08
  Density threshold  = 1.00e-08
  Integral threshold = 0.00e+00

  ==> Primary Basis <==

  Basis Set: AUG-CC-PVDZ
    Blend: AUG-CC-PVDZ
    Number of shells: 38
    Number of basis function: 96
    Number of Cartesian functions: 104
    Spherical Harmonics?: true
    Max angular momentum: 2

   => Loading Basis Set <=

    Name: (AUG-CC-PVDZ AUX)
    Role: JKFIT
    Keyword: DF_BASIS_SCF
    atoms 1 entry AR         line   854 file /home/touko/psi4conda/share/psi4/basis/aug-cc-pvdz-jkfit.gbs 
    atoms 2 entry C          line   154 file /home/touko/psi4conda/share/psi4/basis/aug-cc-pvdz-jkfit.gbs 
    atoms 3 entry N          line   212 file /home/touko/psi4conda/share/psi4/basis/aug-cc-pvdz-jkfit.gbs 
    atoms 4 entry O          line   270 file /home/touko/psi4conda/share/psi4/basis/aug-cc-pvdz-jkfit.gbs 

  ==> Pre-Iterations <==

   -------------------------------------------------------
    Irrep   Nso     Nmo     Nalpha   Nbeta   Ndocc  Nsocc
   -------------------------------------------------------
     A         96      96       0       0       0       0
   -------------------------------------------------------
    Total      96      96      11      10      10       1
   -------------------------------------------------------

  ==> Integral Setup <==

  ==> DiskDFJK: Density-Fitted J/K Matrices <==

    J tasked:                  Yes
    K tasked:                  Yes
    wK tasked:                  No
    OpenMP threads:              1
    Integrals threads:           1
    Memory (MB):               375
    Algorithm:                Core
    Integral Cache:           LOAD
    Schwarz Cutoff:          1E-12
    Fitting Condition:       1E-12

   => Auxiliary Basis Set <=

  Basis Set: (AUG-CC-PVDZ AUX)
    Blend: AUG-CC-PVDZ-JKFIT
    Number of shells: 124
    Number of basis function: 386
    Number of Cartesian functions: 453
    Spherical Harmonics?: true
    Max angular momentum: 3

  Minimum eigenvalue in the overlap matrix is 7.1022703427E-04.
  Using Symmetric Orthogonalization.

  SCF Guess: Generalized Wolfsberg-Helmholtz.

  ==> Iterations <==

                           Total Energy        Delta E     RMS |[F,P]|

   @DF-UHF iter   1:  -156.41993397865454   -1.56420e+02   1.96092e-01 
   @DF-UHF iter   2:  -162.01251419343143   -5.59258e+00   3.31864e-02 DIIS
   @DF-UHF iter   3:  -156.06323834600275    5.94928e+00   3.91353e-02 DIIS
   @DF-UHF iter   4:  -166.47422315545916   -1.04110e+01   1.06153e-02 DIIS
   @DF-UHF iter   5:  -167.06562729999357   -5.91404e-01   2.01324e-03 DIIS
   @DF-UHF iter   6:  -167.11053885711632   -4.49116e-02   1.29086e-03 DIIS
   @DF-UHF iter   7:  -167.12547673352043   -1.49379e-02   1.15267e-03 DIIS
   @DF-UHF iter   8:  -167.14205753828250   -1.65808e-02   6.07705e-04 DIIS
   @DF-UHF iter   9:  -167.15050342001737   -8.44588e-03   2.57236e-04 DIIS
   @DF-UHF iter  10:  -167.15167006045920   -1.16664e-03   2.41796e-04 DIIS
   @DF-UHF iter  11:  -167.15292160611904   -1.25155e-03   1.27051e-04 DIIS
   @DF-UHF iter  12:  -167.15314661983322   -2.25014e-04   9.46336e-05 DIIS
   @DF-UHF iter  13:  -167.15339906495626   -2.52445e-04   2.63814e-05 DIIS
   @DF-UHF iter  14:  -167.15342036392846   -2.12990e-05   1.73396e-05 DIIS
   @DF-UHF iter  15:  -167.15342805978494   -7.69586e-06   3.62031e-06 DIIS
   @DF-UHF iter  16:  -167.15342853485384   -4.75069e-07   1.73164e-06 DIIS
   @DF-UHF iter  17:  -167.15342861454829   -7.96944e-08   1.22927e-06 DIIS
   @DF-UHF iter  18:  -167.15342867546659   -6.09183e-08   8.47954e-07 DIIS
   @DF-UHF iter  19:  -167.15342871815577   -4.26892e-08   3.04899e-07 DIIS
   @DF-UHF iter  20:  -167.15342872278873   -4.63297e-09   6.74573e-08 DIIS
   @DF-UHF iter  21:  -167.15342872295429   -1.65556e-10   2.49723e-08 DIIS
   @DF-UHF iter  22:  -167.15342872296506   -1.07718e-11   6.46311e-09 DIIS

  ==> Post-Iterations <==

   @Spin Contamination Metric:   9.200735173E-02
   @S^2 Expected:                7.500000000E-01
   @S^2 Observed:                8.420073517E-01
   @S   Expected:                5.000000000E-01
   @S   Observed:                5.000000000E-01

    Orbital Energies [Eh]
    ---------------------

    Alpha Occupied:                                                       

       1A    -20.707862     2A    -15.662995     3A    -11.424992  
       4A     -1.542460     5A     -1.296062     6A     -0.809529  
       7A     -0.728396     8A     -0.696299     9A     -0.647505  
      10A     -0.553797    11A     -0.495299  

    Alpha Virtual:                                                        

      12A      0.054100    13A      0.077537    14A      0.085732  
      15A      0.089801    16A      0.099404    17A      0.123870  
      18A      0.124013    19A      0.132443    20A      0.176281  
      21A      0.183123    22A      0.188190    23A      0.204008  
      24A      0.217181    25A      0.249091    26A      0.263352  
      27A      0.277580    28A      0.286915    29A      0.346823  
      30A      0.402109    31A      0.402133    32A      0.487374  
      33A      0.515659    34A      0.572175    35A      0.572247  
      36A      0.585265    37A      0.655751    38A      0.657717  
      39A      0.673047    40A      0.723500    41A      0.728128  
      42A      0.739112    43A      0.753865    44A      0.757495  
      45A      0.796373    46A      0.796373    47A      0.796552  
      48A      0.796575    49A      0.807898    50A      0.881833  
      51A      0.882645    52A      0.899123    53A      1.023126  
      54A      1.098591    55A      1.098896    56A      1.194309  
      57A      1.213376    58A      1.231045    59A      1.477735  
      60A      1.535331    61A      1.564945    62A      1.596713  
      63A      1.598193    64A      1.607647    65A      1.695690  
      66A      1.719233    67A      1.894254    68A      2.076301  
      69A      2.097216    70A      2.289831    71A      2.422043  
      72A      2.437776    73A      2.437790    74A      2.483069  
      75A      2.491914    76A      2.492934    77A      2.761206  
      78A      2.863973    79A      2.894079    80A      3.103757  
      81A      3.103757    82A      3.103811    83A      3.103816  
      84A      3.106724    85A      3.251334    86A      3.458574  
      87A      3.539111    88A      3.539183    89A      3.737275  
      90A      3.762556    91A      4.098259    92A      9.178367  
      93A     27.716035    94A     27.716036    95A     27.733806  
      96A    176.799225  

    Beta Occupied:                                                        

       1A    -20.686974     2A    -15.636189     3A    -11.435097  
       4A     -1.497422     5A     -1.202566     6A     -0.784322  
       7A     -0.690153     8A     -0.603030     9A     -0.597443  
      10A     -0.450345  

    Beta Virtual:                                                         

      11A     -0.022489    12A      0.054495    13A      0.078131  
      14A      0.089963    15A      0.090441    16A      0.099641  
      17A      0.124046    18A      0.124145    19A      0.132465  
      20A      0.177755    21A      0.188794    22A      0.192930  
      23A      0.218748    24A      0.247454    25A      0.251422  
      26A      0.263362    27A      0.292834    28A      0.345605  
      29A      0.351300    30A      0.401136    31A      0.401393  
      32A      0.490064    33A      0.516289    34A      0.572249  
      35A      0.572251    36A      0.585501    37A      0.663135  
      38A      0.675732    39A      0.684356    40A      0.719502  
      41A      0.721528    42A      0.747546    43A      0.777203  
      44A      0.777538    45A      0.796373    46A      0.796373  
      47A      0.796565    48A      0.796573    49A      0.808956  
      50A      0.884782    51A      0.900562    52A      0.907986  
      53A      1.035938    54A      1.110866    55A      1.111149  
      56A      1.219171    57A      1.238704    58A      1.239625  
      59A      1.488683    60A      1.578827    61A      1.581381  
      62A      1.581450    63A      1.594714    64A      1.616748  
      65A      1.725593    66A      1.756777    67A      1.894291  
      68A      2.099030    69A      2.101707    70A      2.307842  
      71A      2.427013    72A      2.437790    73A      2.437792  
      74A      2.489465    75A      2.562592    76A      2.563041  
      77A      2.771656    78A      2.905561    79A      2.908889  
      80A      3.103757    81A      3.103757    82A      3.103812  
      83A      3.103816    84A      3.106746    85A      3.270960  
      86A      3.468103    87A      3.583880    88A      3.584137  
      89A      3.769819    90A      3.777670    91A      4.116145  
      92A      9.178367    93A     27.716035    94A     27.716036  
      95A     27.733806    96A    176.799225  

    Final Occupation by Irrep:
              A 
    DOCC [    10 ]
    SOCC [     1 ]

  Energy converged.

  @DF-UHF Final Energy:  -167.15342872296506

   => Energetics <=

    Nuclear Repulsion Energy =             51.9586267144115723
    One-Electron Energy =                -330.0753746118014078
    Two-Electron Energy =                 110.9633191744247824
    Total Energy =                       -167.1534287229650317


  UHF NO Occupations:
  HONO-2 :    9  A 1.9949110
  HONO-1 :   10  A 1.9613472
  HONO-0 :   11  A 1.0000000
  LUNO+0 :   12  A 0.0386528
  LUNO+1 :   13  A 0.0050890
  LUNO+2 :   14  A 0.0017886
  LUNO+3 :   15  A 0.0006454



Properties will be evaluated at   0.000000,   0.000000,   0.000000 [a0]

Properties computed using the SCF density matrix

  Nuclear Dipole Moment: [e a0]
     X:     0.0000      Y:     0.0000      Z:    -1.4734

  Electronic Dipole Moment: [e a0]
     X:    -0.0000      Y:     0.0000      Z:     1.1750

  Dipole Moment: [e a0]
     X:    -0.0000      Y:     0.0000      Z:    -0.2984     Total:     0.2984

  Dipole Moment: [D]
     X:    -0.0000      Y:     0.0000      Z:    -0.7585     Total:     0.7585


*** tstop() called on Touko at Sat Jan  5 23:17:28 2019
Module time:
	user time   =       1.81 seconds =       0.03 minutes
	system time =       0.06 seconds =       0.00 minutes
	total time  =          2 seconds =       0.03 minutes
Total time:
	user time   =     142.92 seconds =       2.38 minutes
	system time =       7.94 seconds =       0.13 minutes
	total time  =        152 seconds =       2.53 minutes
  Constructing Basis Sets for SAPT...

   => Loading Basis Set <=

    Name: (AUG-CC-PVDZ AUX)
    Role: RIFIT
    Keyword: DF_BASIS_SAPT
    atoms 1 entry AR         line   632 file /home/touko/psi4conda/share/psi4/basis/aug-cc-pvdz-ri.gbs 
    atoms 2 entry C          line   112 file /home/touko/psi4conda/share/psi4/basis/aug-cc-pvdz-ri.gbs 
    atoms 3 entry N          line   158 file /home/touko/psi4conda/share/psi4/basis/aug-cc-pvdz-ri.gbs 
    atoms 4 entry O          line   204 file /home/touko/psi4conda/share/psi4/basis/aug-cc-pvdz-ri.gbs 


  //>>>>>>>>>>>>>>>>>>>>>>>>>>>>>>>>>>>//
  //               SAPT0               //
  //<<<<<<<<<<<<<<<<<<<<<<<<<<<<<<<<<<<//


*** tstart() called on Touko
*** at Sat Jan  5 23:17:28 2019

	 --------------------------------------------------------
	                         SAPT                      
	               Rob Parrish and Ed Hohenstein             
	                Open-shell: Jérôme Gonthier              
	 --------------------------------------------------------

  ==> Sizes <==

   => Resources <=

    Memory (MB):               450

   => Orbital Ranges <=

    ------------------
    Range    M_A   M_B
    ------------------
    natom      1     3
    nso       96    96
    ------------------
      Alpha orbitals  
    ------------------
    nmo       96    96
    nocc       9    11
    nvir      87    85
    nfocc      0     0
    naocc      9    11
    navir     87    85
    nfvir      0     0
    ------------------
      Beta orbitals  
    ------------------
    nmo       96    96
    nocc       9    10
    nvir      87    86
    nfocc      0     0
    naocc      9    10
    navir     87    86
    nfvir      0     0
    ------------------

   => Primary Basis Set <=

  Basis Set: AUG-CC-PVDZ
    Blend: AUG-CC-PVDZ
    Number of shells: 38
    Number of basis function: 96
    Number of Cartesian functions: 104
    Spherical Harmonics?: true
    Max angular momentum: 2

  SCF TERMS:

  ==> DiskDFJK: Density-Fitted J/K Matrices <==

    J tasked:                  Yes
    K tasked:                  Yes
    wK tasked:                  No
    OpenMP threads:              1
    Integrals threads:           1
    Memory (MB):               448
    Algorithm:                Core
    Integral Cache:           NONE
    Schwarz Cutoff:          1E-12
    Fitting Condition:       1E-12

   => Auxiliary Basis Set <=

  Basis Set: (AUG-CC-PVDZ AUX)
    Blend: AUG-CC-PVDZ-JKFIT
    Number of shells: 124
    Number of basis function: 386
    Number of Cartesian functions: 453
    Spherical Harmonics?: true
    Max angular momentum: 3

    Elst10,r            =     0.000000200980 H
    Exch10              =     0.000000036349 H
    Exch10(S^2)         =     0.000000036349 H

    Exch10(S^2) DM      =     0.000000036349 H

    Ind20,u (A<-B)      =    -0.000000068467 H
    Ind20,u (B<-A)      =    -0.000000010990 H
    Ind20,u             =    -0.000000079458 H
    Exch-Ind20,u (A<-B) =     0.000000011509 H
    Exch-Ind20,u (B<-A) =     0.000000006612 H
    Exch-Ind20,u        =     0.000000018121 H

  ==> CPKS Iterations <==

    Maxiter     =          50
    Convergence =   1.000E-09

    -----------------------------------------
    Iter   Monomer A    Monomer B    Time [s]
    -----------------------------------------
    1      1.746E-01    1.831E-02           1
    2      5.242E-02    2.457E-03           1
    3      7.414E-03    1.172E-03           1
    4      5.803E-04    1.465E-03           1
    5      1.007E-04    5.703E-04           1
    6      1.193E-05    7.141E-05           2
    7      5.375E-07    4.454E-05           2
    8      5.908E-08    3.226E-05           2
    9      2.150E-08    1.811E-05           2
    10     1.892E-09    1.302E-05           2
    11     1.969E-10*   4.742E-06           2
    12     1.969E-10*   1.719E-06           2
    13     1.969E-10*   3.041E-07           2
    14     1.969E-10*   7.910E-08           2
    15     1.969E-10*   2.621E-08           3
    16     1.969E-10*   8.234E-09           3
    17     1.969E-10*   1.672E-09           3
    18     1.969E-10*   5.655E-10*          3
    -----------------------------------------

    Ind20,r (A<-B)      =    -0.000000073030 H
    Ind20,r (B<-A)      =    -0.000000011217 H
    Ind20,r             =    -0.000000084247 H
    Exch-Ind20,r (A<-B) =     0.000000011865 H
    Exch-Ind20,r (B<-A) =     0.000000006729 H
    Exch-Ind20,r        =     0.000000018594 H

  PT2 TERMS:

    Disp20              =    -0.000036965076 H
    Exch-Disp20         =     0.000000006902 H


    SAPT Results 
  --------------------------------------------------------------------------------------------------------
    Electrostatics                  0.00020098 [mEh]       0.00012612 [kcal/mol]       0.00052767 [kJ/mol]
      Elst10,r                      0.00020098 [mEh]       0.00012612 [kcal/mol]       0.00052767 [kJ/mol]

    Exchange                        0.00003635 [mEh]       0.00002281 [kcal/mol]       0.00009544 [kJ/mol]
      Exch10                        0.00003635 [mEh]       0.00002281 [kcal/mol]       0.00009544 [kJ/mol]
      Exch10(S^2)                   0.00003635 [mEh]       0.00002281 [kcal/mol]       0.00009544 [kJ/mol]

    Induction                      -0.00006983 [mEh]      -0.00004382 [kcal/mol]      -0.00018335 [kJ/mol]
      Ind20,r                      -0.00008425 [mEh]      -0.00005287 [kcal/mol]      -0.00022119 [kJ/mol]
      Exch-Ind20,r                  0.00001859 [mEh]       0.00001167 [kcal/mol]       0.00004882 [kJ/mol]
      delta HF,r (2)               -0.00000418 [mEh]      -0.00000262 [kcal/mol]      -0.00001098 [kJ/mol]

    Dispersion                     -0.03695817 [mEh]      -0.02319161 [kcal/mol]      -0.09703369 [kJ/mol]
      Disp20                       -0.03696508 [mEh]      -0.02319594 [kcal/mol]      -0.09705181 [kJ/mol]
      Exch-Disp20                   0.00000690 [mEh]       0.00000433 [kcal/mol]       0.00001812 [kJ/mol]

  Total HF                          0.00016749 [mEh]       0.00010510 [kcal/mol]       0.00043976 [kJ/mol]
  Total SAPT0                      -0.03679068 [mEh]      -0.02308650 [kcal/mol]      -0.09659393 [kJ/mol]
  --------------------------------------------------------------------------------------------------------

*** tstop() called on Touko at Sat Jan  5 23:17:33 2019
Module time:
	user time   =       4.56 seconds =       0.08 minutes
	system time =       0.16 seconds =       0.00 minutes
	total time  =          5 seconds =       0.08 minutes
Total time:
	user time   =     147.58 seconds =       2.46 minutes
	system time =       8.10 seconds =       0.14 minutes
	total time  =        157 seconds =       2.62 minutes

    Psi4 stopped on: Saturday, 05 January 2019 11:17PM
    Psi4 wall time for execution: 0:02:36.57

*** Psi4 exiting successfully. Buy a developer a beer!
