
    -----------------------------------------------------------------------
          Psi4: An Open-Source Ab Initio Electronic Structure Package
                               Psi4 1.2 release

                         Git: Rev {HEAD} 9d4a61c 


    R. M. Parrish, L. A. Burns, D. G. A. Smith, A. C. Simmonett,
    A. E. DePrince III, E. G. Hohenstein, U. Bozkaya, A. Yu. Sokolov,
    R. Di Remigio, R. M. Richard, J. F. Gonthier, A. M. James,
    H. R. McAlexander, A. Kumar, M. Saitow, X. Wang, B. P. Pritchard,
    P. Verma, H. F. Schaefer III, K. Patkowski, R. A. King, E. F. Valeev,
    F. A. Evangelista, J. M. Turney, T. D. Crawford, and C. D. Sherrill,
    J. Chem. Theory Comput. 13(7) pp 3185--3197 (2017).
    (doi: 10.1021/acs.jctc.7b00174)


                         Additional Contributions by
    P. Kraus, H. Kruse, M. H. Lechner, M. C. Schieber, and R. A. Shaw

    -----------------------------------------------------------------------


    Psi4 started on: Saturday, 05 January 2019 11:28PM

    Process ID: 58
    Host:       Touko
    PSIDATADIR: /home/touko/psi4conda/share/psi4
    Memory:     500.0 MiB
    Threads:    1
    
  ==> Input File <==

--------------------------------------------------------------------------
molecule NCOAr{
  0 1
  Ar 0.0 0.0 R
  --
  0 2
  C 0.0 0.0 0.0
  N 0.0 0.0 1.231991
  O 0.0 0.0 -1.175455
}

Rvars = [4.0,4.2,4.4,4.6,4.8,5.0,5.2,5.4,5.6,5.8,6.0,6.2,6.4,6.6,6.8,7.0]
autocm = 219474.63067

table=Table(rows=["R"], cols=["E(Ele)","E(Ex)","E(Ind)","E(Disp)","E(SAPT0)"])

set {
  basis = aug-cc-pvdz
  reference = UHF
}

for R in Rvars:
  NCOAr.R = R - 0.036898
  energy('sapt0')
  eele = get_variable('SAPT ELST ENERGY') * autocm
  eex = get_variable('SAPT EXCH ENERGY') * autocm
  eind = get_variable('SAPT IND ENERGY') * autocm
  edisp = get_variable('SAPT DISP ENERGY') * autocm
  esapt0 = get_variable('SAPT TOTAL ENERGY') * autocm
  table[R] = [eele,eex,eind,edisp,esapt0]

print(table)
--------------------------------------------------------------------------
Molecule: geometry: Molecule is not complete, please use 'update_geometry'
                    once all variables are set.

Molecule: Setting a variable updates the molecular geometry, for
          cartesian molecules this can lead to surprising behaviour.
          Freezing COM and orientation to prevent this.

Molecule: Setting geometry variable R to 3.963102
  SAPT does not make use of molecular symmetry, further calculations in C1 point group.

  //>>>>>>>>>>>>>>>>>>>>>>>>>>>>>>>>>>>//
  //              Dimer HF             //
  //<<<<<<<<<<<<<<<<<<<<<<<<<<<<<<<<<<<//


*** tstart() called on Touko
*** at Sat Jan  5 23:28:30 2019

   => Loading Basis Set <=

    Name: AUG-CC-PVDZ
    Role: ORBITAL
    Keyword: BASIS
    atoms 1 entry AR         line   830 file /home/touko/psi4conda/share/psi4/basis/aug-cc-pvdz.gbs 
    atoms 2 entry C          line   178 file /home/touko/psi4conda/share/psi4/basis/aug-cc-pvdz.gbs 
    atoms 3 entry N          line   214 file /home/touko/psi4conda/share/psi4/basis/aug-cc-pvdz.gbs 
    atoms 4 entry O          line   250 file /home/touko/psi4conda/share/psi4/basis/aug-cc-pvdz.gbs 


         ---------------------------------------------------------
                                   SCF
            by Justin Turney, Rob Parrish, Andy Simmonett
                             and Daniel Smith
                              UHF Reference
                        1 Threads,    500 MiB Core
         ---------------------------------------------------------

  ==> Geometry <==

    Molecular point group: c1
    Full point group: C_inf_v

    Geometry (in Angstrom), charge = 0, multiplicity = 2:

       Center              X                  Y                   Z               Mass       
    ------------   -----------------  -----------------  -----------------  -----------------
         AR           0.000000000000     0.000000000000     3.963102000000    39.962383122510
         C            0.000000000000     0.000000000000     0.000000000000    12.000000000000
         N            0.000000000000     0.000000000000     1.231991000000    14.003074004780
         O            0.000000000000     0.000000000000    -1.175455000000    15.994914619560

  Running in c1 symmetry.

  Rotational constants: A = ************  B =      0.02512  C =      0.02512 [cm^-1]
  Rotational constants: A = ************  B =    753.16137  C =    753.16137 [MHz]
  Nuclear repulsion =  105.622425459140644

  Charge       = 0
  Multiplicity = 2
  Electrons    = 39
  Nalpha       = 20
  Nbeta        = 19

  ==> Algorithm <==

  SCF Algorithm Type is DF.
  DIIS enabled.
  MOM disabled.
  Fractional occupation disabled.
  Guess Type is GWH.
  Energy threshold   = 1.00e-08
  Density threshold  = 1.00e-08
  Integral threshold = 0.00e+00

  ==> Primary Basis <==

  Basis Set: AUG-CC-PVDZ
    Blend: AUG-CC-PVDZ
    Number of shells: 38
    Number of basis function: 96
    Number of Cartesian functions: 104
    Spherical Harmonics?: true
    Max angular momentum: 2

   => Loading Basis Set <=

    Name: (AUG-CC-PVDZ AUX)
    Role: JKFIT
    Keyword: DF_BASIS_SCF
    atoms 1 entry AR         line   854 file /home/touko/psi4conda/share/psi4/basis/aug-cc-pvdz-jkfit.gbs 
    atoms 2 entry C          line   154 file /home/touko/psi4conda/share/psi4/basis/aug-cc-pvdz-jkfit.gbs 
    atoms 3 entry N          line   212 file /home/touko/psi4conda/share/psi4/basis/aug-cc-pvdz-jkfit.gbs 
    atoms 4 entry O          line   270 file /home/touko/psi4conda/share/psi4/basis/aug-cc-pvdz-jkfit.gbs 

  ==> Pre-Iterations <==

   -------------------------------------------------------
    Irrep   Nso     Nmo     Nalpha   Nbeta   Ndocc  Nsocc
   -------------------------------------------------------
     A         96      96       0       0       0       0
   -------------------------------------------------------
    Total      96      96      20      19      19       1
   -------------------------------------------------------

  ==> Integral Setup <==

  ==> DiskDFJK: Density-Fitted J/K Matrices <==

    J tasked:                  Yes
    K tasked:                  Yes
    wK tasked:                  No
    OpenMP threads:              1
    Integrals threads:           1
    Memory (MB):               375
    Algorithm:                Core
    Integral Cache:           SAVE
    Schwarz Cutoff:          1E-12
    Fitting Condition:       1E-12

   => Auxiliary Basis Set <=

  Basis Set: (AUG-CC-PVDZ AUX)
    Blend: AUG-CC-PVDZ-JKFIT
    Number of shells: 124
    Number of basis function: 386
    Number of Cartesian functions: 453
    Spherical Harmonics?: true
    Max angular momentum: 3

  Minimum eigenvalue in the overlap matrix is 6.8855578444E-04.
  Using Symmetric Orthogonalization.

  SCF Guess: Generalized Wolfsberg-Helmholtz.

  ==> Iterations <==

                           Total Energy        Delta E     RMS |[F,P]|

   @DF-UHF iter   1:  -691.38305109061582   -6.91383e+02   3.99500e-02 
   @DF-UHF iter   2:  -692.95375385653529   -1.57070e+00   1.63737e-02 DIIS
   @DF-UHF iter   3:  -693.32439766812377   -3.70644e-01   1.23147e-02 DIIS
   @DF-UHF iter   4:  -693.91823215542217   -5.93834e-01   1.86045e-03 DIIS
   @DF-UHF iter   5:  -693.93848383977343   -2.02517e-02   8.41419e-04 DIIS
   @DF-UHF iter   6:  -693.94305682962727   -4.57299e-03   2.78255e-04 DIIS
   @DF-UHF iter   7:  -693.94448119445599   -1.42436e-03   1.42503e-04 DIIS
   @DF-UHF iter   8:  -693.94491126936248   -4.30075e-04   9.20143e-05 DIIS
   @DF-UHF iter   9:  -693.94522494677244   -3.13677e-04   5.60478e-05 DIIS
   @DF-UHF iter  10:  -693.94540715628102   -1.82210e-04   3.56313e-05 DIIS
   @DF-UHF iter  11:  -693.94547897404379   -7.18178e-05   1.25015e-05 DIIS
   @DF-UHF iter  12:  -693.94548564900492   -6.67496e-06   3.43511e-06 DIIS
   @DF-UHF iter  13:  -693.94548600687926   -3.57874e-07   1.19357e-06 DIIS
   @DF-UHF iter  14:  -693.94548603716180   -3.02825e-08   3.45063e-07 DIIS
   @DF-UHF iter  15:  -693.94548603923556   -2.07376e-09   1.34886e-07 DIIS
   @DF-UHF iter  16:  -693.94548603958333   -3.47768e-10   8.25960e-08 DIIS
   @DF-UHF iter  17:  -693.94548603976580   -1.82467e-10   6.23784e-08 DIIS
   @DF-UHF iter  18:  -693.94548603995509   -1.89289e-10   3.21203e-08 DIIS
   @DF-UHF iter  19:  -693.94548604001102   -5.59339e-11   1.04319e-08 DIIS
   @DF-UHF iter  20:  -693.94548604001500   -3.97904e-12   3.50321e-09 DIIS

  ==> Post-Iterations <==

   @Spin Contamination Metric:   9.124563085E-02
   @S^2 Expected:                7.500000000E-01
   @S^2 Observed:                8.412456309E-01
   @S   Expected:                5.000000000E-01
   @S   Observed:                5.000000000E-01

    Orbital Energies [Eh]
    ---------------------

    Alpha Occupied:                                                       

       1A   -118.590749     2A    -20.708397     3A    -15.659939  
       4A    -12.303294     5A    -11.424709     6A     -9.551930  
       7A     -9.551892     8A     -9.551826     9A     -1.542882  
      10A     -1.296775    11A     -1.261514    12A     -0.810217  
      13A     -0.728746    14A     -0.696732    15A     -0.664523  
      16A     -0.577119    17A     -0.575767    18A     -0.558469  
      19A     -0.552664    20A     -0.495112  

    Alpha Virtual:                                                        

      21A      0.054844    22A      0.082388    23A      0.086142  
      24A      0.089010    25A      0.129284    26A      0.158740  
      27A      0.162109    28A      0.198432    29A      0.210146  
      30A      0.212394    31A      0.213008    32A      0.219257  
      33A      0.245722    34A      0.280683    35A      0.290425  
      36A      0.294564    37A      0.345400    38A      0.399273  
      39A      0.401131    40A      0.401304    41A      0.484582  
      42A      0.552269    43A      0.552270    44A      0.574546  
      45A      0.576859    46A      0.592499    47A      0.685971  
      48A      0.701174    49A      0.728068    50A      0.736455  
      51A      0.741149    52A      0.756044    53A      0.756058  
      54A      0.780852    55A      0.893845    56A      0.904474  
      57A      0.915985    58A      0.992233    59A      1.031518  
      60A      1.037329    61A      1.098204    62A      1.098526  
      63A      1.137830    64A      1.197115    65A      1.216716  
      66A      1.386992    67A      1.466644    68A      1.537141  
      69A      1.548123    70A      1.577477    71A      1.594589  
      72A      1.594688    73A      1.631959    74A      1.631965  
      75A      1.651333    76A      1.661004    77A      1.760600  
      78A      1.775335    79A      1.802149    80A      1.897707  
      81A      2.103228    82A      2.123468    83A      2.398110  
      84A      2.484535    85A      2.494096    86A      2.496691  
      87A      2.821731    88A      2.874049    89A      2.904448  
      90A      3.277644    91A      3.538656    92A      3.538797  
      93A      3.626860    94A      3.737298    95A      3.762519  
      96A      4.102663  

    Beta Occupied:                                                        

       1A   -118.590773     2A    -20.687493     3A    -15.633505  
       4A    -12.303328     5A    -11.434754     6A     -9.551925  
       7A     -9.551908     8A     -9.551904     9A     -1.497789  
      10A     -1.262295    11A     -1.202987    12A     -0.785015  
      13A     -0.690376    14A     -0.632705    15A     -0.597868  
      16A     -0.575665    17A     -0.575559    18A     -0.546887  
      19A     -0.450905  

    Beta Virtual:                                                         

      20A     -0.023244    21A      0.055187    22A      0.086234  
      23A      0.086680    24A      0.089597    25A      0.129483  
      26A      0.161034    27A      0.165336    28A      0.203302  
      29A      0.211919    30A      0.221680    31A      0.223023  
      32A      0.246103    33A      0.248304    34A      0.294644  
      35A      0.296767    36A      0.347179    37A      0.349925  
      38A      0.399874    39A      0.400247    40A      0.400781  
      41A      0.488170    42A      0.552511    43A      0.552511  
      44A      0.574984    45A      0.575898    46A      0.596105  
      47A      0.707566    48A      0.717813    49A      0.730524  
      50A      0.732445    51A      0.733097    52A      0.778198  
      53A      0.779163    54A      0.785870    55A      0.904783  
      56A      0.908186    57A      0.920112    58A      0.999383  
      59A      1.037932    60A      1.040343    61A      1.110486  
      62A      1.110582    63A      1.151226    64A      1.223315  
      65A      1.243791    66A      1.390212    67A      1.472913  
      68A      1.546556    69A      1.579105    70A      1.579298  
      71A      1.590817    72A      1.605682    73A      1.630897  
      74A      1.630900    75A      1.663248    76A      1.671472  
      77A      1.779365    78A      1.801231    79A      1.806004  
      80A      1.901015    81A      2.124562    82A      2.126063  
      83A      2.417932    84A      2.490452    85A      2.564248  
      86A      2.564785    87A      2.833049    88A      2.915915  
      89A      2.919493    90A      3.297704    91A      3.583529  
      92A      3.583612    93A      3.637119    94A      3.769816  
      95A      3.777655    96A      4.120616  

    Final Occupation by Irrep:
              A 
    DOCC [    19 ]
    SOCC [     1 ]

  Energy converged.

  @DF-UHF Final Energy:  -693.94548604001500

   => Energetics <=

    Nuclear Repulsion Energy =            105.6224254591406435
    One-Electron Energy =               -1165.9089277382763612
    Two-Electron Energy =                 366.3410162391207336
    Total Energy =                       -693.9454860400148846


  UHF NO Occupations:
  HONO-2 :   18  A 1.9951324
  HONO-1 :   19  A 1.9613987
  HONO-0 :   20  A 1.0000000
  LUNO+0 :   21  A 0.0386013
  LUNO+1 :   22  A 0.0048676
  LUNO+2 :   23  A 0.0017139
  LUNO+3 :   24  A 0.0006274



Properties will be evaluated at   0.000000,   0.000000,   0.000000 [a0]

Properties computed using the SCF density matrix

  Nuclear Dipole Moment: [e a0]
     X:     0.0000      Y:     0.0000      Z:   133.3318

  Electronic Dipole Moment: [e a0]
     X:     0.0000      Y:    -0.0000      Z:  -133.7027

  Dipole Moment: [e a0]
     X:     0.0000      Y:    -0.0000      Z:    -0.3709     Total:     0.3709

  Dipole Moment: [D]
     X:     0.0000      Y:    -0.0000      Z:    -0.9427     Total:     0.9427


*** tstop() called on Touko at Sat Jan  5 23:28:32 2019
Module time:
	user time   =       2.30 seconds =       0.04 minutes
	system time =       0.17 seconds =       0.00 minutes
	total time  =          2 seconds =       0.03 minutes
Total time:
	user time   =       2.30 seconds =       0.04 minutes
	system time =       0.17 seconds =       0.00 minutes
	total time  =          2 seconds =       0.03 minutes

  //>>>>>>>>>>>>>>>>>>>>>>>>>>>>>>>>>>>//
  //            Monomer A HF           //
  //<<<<<<<<<<<<<<<<<<<<<<<<<<<<<<<<<<<//


*** tstart() called on Touko
*** at Sat Jan  5 23:28:32 2019

   => Loading Basis Set <=

    Name: AUG-CC-PVDZ
    Role: ORBITAL
    Keyword: BASIS
    atoms 1 entry AR         line   830 file /home/touko/psi4conda/share/psi4/basis/aug-cc-pvdz.gbs 
    atoms 2 entry C          line   178 file /home/touko/psi4conda/share/psi4/basis/aug-cc-pvdz.gbs 
    atoms 3 entry N          line   214 file /home/touko/psi4conda/share/psi4/basis/aug-cc-pvdz.gbs 
    atoms 4 entry O          line   250 file /home/touko/psi4conda/share/psi4/basis/aug-cc-pvdz.gbs 


         ---------------------------------------------------------
                                   SCF
            by Justin Turney, Rob Parrish, Andy Simmonett
                             and Daniel Smith
                              UHF Reference
                        1 Threads,    500 MiB Core
         ---------------------------------------------------------

  ==> Geometry <==

    Molecular point group: c1
    Full point group: C_inf_v

    Geometry (in Angstrom), charge = 0, multiplicity = 1:

       Center              X                  Y                   Z               Mass       
    ------------   -----------------  -----------------  -----------------  -----------------
         AR           0.000000000000     0.000000000000     3.963102000000    39.962383122510
      Gh(C)           0.000000000000     0.000000000000     0.000000000000    12.000000000000
      Gh(N)           0.000000000000     0.000000000000     1.231991000000    14.003074004780
      Gh(O)           0.000000000000     0.000000000000    -1.175455000000    15.994914619560

  Running in c1 symmetry.

  Rotational constants: A = ************  B =      0.02512  C =      0.02512 [cm^-1]
  Rotational constants: A = ************  B =    753.16137  C =    753.16137 [MHz]
  Nuclear repulsion =    0.000000000000000

  Charge       = 0
  Multiplicity = 1
  Electrons    = 18
  Nalpha       = 9
  Nbeta        = 9

  ==> Algorithm <==

  SCF Algorithm Type is DF.
  DIIS enabled.
  MOM disabled.
  Fractional occupation disabled.
  Guess Type is GWH.
  Energy threshold   = 1.00e-08
  Density threshold  = 1.00e-08
  Integral threshold = 0.00e+00

  ==> Primary Basis <==

  Basis Set: AUG-CC-PVDZ
    Blend: AUG-CC-PVDZ
    Number of shells: 38
    Number of basis function: 96
    Number of Cartesian functions: 104
    Spherical Harmonics?: true
    Max angular momentum: 2

   => Loading Basis Set <=

    Name: (AUG-CC-PVDZ AUX)
    Role: JKFIT
    Keyword: DF_BASIS_SCF
    atoms 1 entry AR         line   854 file /home/touko/psi4conda/share/psi4/basis/aug-cc-pvdz-jkfit.gbs 
    atoms 2 entry C          line   154 file /home/touko/psi4conda/share/psi4/basis/aug-cc-pvdz-jkfit.gbs 
    atoms 3 entry N          line   212 file /home/touko/psi4conda/share/psi4/basis/aug-cc-pvdz-jkfit.gbs 
    atoms 4 entry O          line   270 file /home/touko/psi4conda/share/psi4/basis/aug-cc-pvdz-jkfit.gbs 

  ==> Pre-Iterations <==

   -------------------------------------------------------
    Irrep   Nso     Nmo     Nalpha   Nbeta   Ndocc  Nsocc
   -------------------------------------------------------
     A         96      96       0       0       0       0
   -------------------------------------------------------
    Total      96      96       9       9       9       0
   -------------------------------------------------------

  ==> Integral Setup <==

  ==> DiskDFJK: Density-Fitted J/K Matrices <==

    J tasked:                  Yes
    K tasked:                  Yes
    wK tasked:                  No
    OpenMP threads:              1
    Integrals threads:           1
    Memory (MB):               375
    Algorithm:                Core
    Integral Cache:           LOAD
    Schwarz Cutoff:          1E-12
    Fitting Condition:       1E-12

   => Auxiliary Basis Set <=

  Basis Set: (AUG-CC-PVDZ AUX)
    Blend: AUG-CC-PVDZ-JKFIT
    Number of shells: 124
    Number of basis function: 386
    Number of Cartesian functions: 453
    Spherical Harmonics?: true
    Max angular momentum: 3

  Minimum eigenvalue in the overlap matrix is 6.8855578444E-04.
  Using Symmetric Orthogonalization.

  SCF Guess: Generalized Wolfsberg-Helmholtz.

  ==> Iterations <==

                           Total Energy        Delta E     RMS |[F,P]|

   @DF-UHF iter   1:  -493.46660425313848   -4.93467e+02   1.14613e-01 
   @DF-UHF iter   2:  -525.67727506069457   -3.22107e+01   1.37851e-02 DIIS
   @DF-UHF iter   3:  -526.74825289868886   -1.07098e+00   3.82866e-03 DIIS
   @DF-UHF iter   4:  -526.80084788337956   -5.25950e-02   2.35238e-04 DIIS
   @DF-UHF iter   5:  -526.80115765417804   -3.09771e-04   2.86944e-05 DIIS
   @DF-UHF iter   6:  -526.80116510985408   -7.45568e-06   6.49192e-06 DIIS
   @DF-UHF iter   7:  -526.80116544247255   -3.32618e-07   1.13084e-06 DIIS
   @DF-UHF iter   8:  -526.80116545490580   -1.24332e-08   2.86290e-07 DIIS
   @DF-UHF iter   9:  -526.80116545609917   -1.19337e-09   2.09889e-08 DIIS
   @DF-UHF iter  10:  -526.80116545610235   -3.18323e-12   3.02383e-09 DIIS

  ==> Post-Iterations <==

   @Spin Contamination Metric:   2.842170943E-14
   @S^2 Expected:                0.000000000E+00
   @S^2 Observed:                2.842170943E-14
   @S   Expected:                0.000000000E+00
   @S   Observed:                0.000000000E+00

    Orbital Energies [Eh]
    ---------------------

    Alpha Occupied:                                                       

       1A   -118.611002     2A    -12.322865     3A     -9.571556  
       4A     -9.571504     5A     -9.571504     6A     -1.278708  
       7A     -0.592172     8A     -0.592002     9A     -0.592002  

    Alpha Virtual:                                                        

      10A      0.044438    11A      0.076965    12A      0.082450  
      13A      0.082450    14A      0.122820    15A      0.156810  
      16A      0.156810    17A      0.181574    18A      0.199059  
      19A      0.199059    20A      0.205248    21A      0.237639  
      22A      0.246589    23A      0.246589    24A      0.291881  
      25A      0.381821    26A      0.474832    27A      0.503050  
      28A      0.503050    29A      0.507122    30A      0.507122  
      31A      0.518323    32A      0.540234    33A      0.540234  
      34A      0.573381    35A      0.573381    36A      0.592724  
      37A      0.593165    38A      0.593165    39A      0.658521  
      40A      0.852465    41A      0.867426    42A      0.867426  
      43A      0.884322    44A      0.884322    45A      0.971394  
      46A      0.971394    47A      1.029515    48A      1.069192  
      49A      1.116849    50A      1.116849    51A      1.172460  
      52A      1.259030    53A      1.259030    54A      1.303474  
      55A      1.303474    56A      1.323459    57A      1.353017  
      58A      1.482335    59A      1.482335    60A      1.500421  
      61A      1.614237    62A      1.614237    63A      1.678216  
      64A      1.678216    65A      1.717296    66A      1.855499  
      67A      2.223920    68A      2.223920    69A      2.779406  
      70A      2.805826    71A      2.805826    72A      3.061208  
      73A      3.313819    74A      3.313819    75A      3.387737  
      76A      3.387737    77A      3.402338    78A      3.710784  
      79A      3.753330    80A      3.753330    81A      4.309638  
      82A      4.549369    83A      4.636596    84A      4.636596  
      85A      4.887190    86A      4.887190    87A      5.096119  
      88A      5.096119    89A      5.287746    90A      5.987817  
      91A      5.987817    92A      6.529024    93A      7.636856  
      94A     18.811657    95A     25.263435    96A     33.539746  

    Beta Occupied:                                                        

       1A   -118.611002     2A    -12.322865     3A     -9.571556  
       4A     -9.571504     5A     -9.571504     6A     -1.278708  
       7A     -0.592172     8A     -0.592002     9A     -0.592002  

    Beta Virtual:                                                         

      10A      0.044438    11A      0.076965    12A      0.082450  
      13A      0.082450    14A      0.122820    15A      0.156810  
      16A      0.156810    17A      0.181574    18A      0.199059  
      19A      0.199059    20A      0.205248    21A      0.237639  
      22A      0.246589    23A      0.246589    24A      0.291881  
      25A      0.381821    26A      0.474832    27A      0.503050  
      28A      0.503050    29A      0.507122    30A      0.507122  
      31A      0.518323    32A      0.540234    33A      0.540234  
      34A      0.573381    35A      0.573381    36A      0.592724  
      37A      0.593165    38A      0.593165    39A      0.658521  
      40A      0.852465    41A      0.867426    42A      0.867426  
      43A      0.884322    44A      0.884322    45A      0.971394  
      46A      0.971394    47A      1.029515    48A      1.069192  
      49A      1.116849    50A      1.116849    51A      1.172460  
      52A      1.259030    53A      1.259030    54A      1.303474  
      55A      1.303474    56A      1.323459    57A      1.353017  
      58A      1.482335    59A      1.482335    60A      1.500421  
      61A      1.614237    62A      1.614237    63A      1.678216  
      64A      1.678216    65A      1.717296    66A      1.855499  
      67A      2.223920    68A      2.223920    69A      2.779406  
      70A      2.805826    71A      2.805826    72A      3.061208  
      73A      3.313819    74A      3.313819    75A      3.387737  
      76A      3.387737    77A      3.402338    78A      3.710784  
      79A      3.753330    80A      3.753330    81A      4.309638  
      82A      4.549369    83A      4.636596    84A      4.636596  
      85A      4.887190    86A      4.887190    87A      5.096119  
      88A      5.096119    89A      5.287746    90A      5.987817  
      91A      5.987817    92A      6.529024    93A      7.636856  
      94A     18.811657    95A     25.263435    96A     33.539746  

    Final Occupation by Irrep:
              A 
    DOCC [     9 ]
    SOCC [     0 ]

  Energy converged.

  @DF-UHF Final Energy:  -526.80116545610235

   => Energetics <=

    Nuclear Repulsion Energy =              0.0000000000000000
    One-Electron Energy =                -728.1957023589374103
    Two-Electron Energy =                 201.3945369028350001
    Total Energy =                       -526.8011654561023533


  UHF NO Occupations:
  HONO-2 :    7  A 2.0000000
  HONO-1 :    8  A 2.0000000
  HONO-0 :    9  A 2.0000000
  LUNO+0 :   10  A 0.0000000
  LUNO+1 :   11  A 0.0000000
  LUNO+2 :   12  A 0.0000000
  LUNO+3 :   13  A 0.0000000



Properties will be evaluated at   0.000000,   0.000000,   0.000000 [a0]

Properties computed using the SCF density matrix

  Nuclear Dipole Moment: [e a0]
     X:     0.0000      Y:     0.0000      Z:   134.8052

  Electronic Dipole Moment: [e a0]
     X:     0.0000      Y:    -0.0000      Z:  -134.8055

  Dipole Moment: [e a0]
     X:     0.0000      Y:    -0.0000      Z:    -0.0003     Total:     0.0003

  Dipole Moment: [D]
     X:     0.0000      Y:    -0.0000      Z:    -0.0007     Total:     0.0007


*** tstop() called on Touko at Sat Jan  5 23:28:33 2019
Module time:
	user time   =       0.86 seconds =       0.01 minutes
	system time =       0.02 seconds =       0.00 minutes
	total time  =          1 seconds =       0.02 minutes
Total time:
	user time   =       3.16 seconds =       0.05 minutes
	system time =       0.19 seconds =       0.00 minutes
	total time  =          3 seconds =       0.05 minutes

  //>>>>>>>>>>>>>>>>>>>>>>>>>>>>>>>>>>>//
  //            Monomer B HF           //
  //<<<<<<<<<<<<<<<<<<<<<<<<<<<<<<<<<<<//


*** tstart() called on Touko
*** at Sat Jan  5 23:28:33 2019

   => Loading Basis Set <=

    Name: AUG-CC-PVDZ
    Role: ORBITAL
    Keyword: BASIS
    atoms 1 entry AR         line   830 file /home/touko/psi4conda/share/psi4/basis/aug-cc-pvdz.gbs 
    atoms 2 entry C          line   178 file /home/touko/psi4conda/share/psi4/basis/aug-cc-pvdz.gbs 
    atoms 3 entry N          line   214 file /home/touko/psi4conda/share/psi4/basis/aug-cc-pvdz.gbs 
    atoms 4 entry O          line   250 file /home/touko/psi4conda/share/psi4/basis/aug-cc-pvdz.gbs 


         ---------------------------------------------------------
                                   SCF
            by Justin Turney, Rob Parrish, Andy Simmonett
                             and Daniel Smith
                              UHF Reference
                        1 Threads,    500 MiB Core
         ---------------------------------------------------------

  ==> Geometry <==

    Molecular point group: c1
    Full point group: C_inf_v

    Geometry (in Angstrom), charge = 0, multiplicity = 2:

       Center              X                  Y                   Z               Mass       
    ------------   -----------------  -----------------  -----------------  -----------------
      Gh(AR)          0.000000000000     0.000000000000     3.963102000000    39.962383122510
         C            0.000000000000     0.000000000000     0.000000000000    12.000000000000
         N            0.000000000000     0.000000000000     1.231991000000    14.003074004780
         O            0.000000000000     0.000000000000    -1.175455000000    15.994914619560

  Running in c1 symmetry.

  Rotational constants: A = ************  B =      0.02512  C =      0.02512 [cm^-1]
  Rotational constants: A = ************  B =    753.16137  C =    753.16137 [MHz]
  Nuclear repulsion =   51.958626714411572

  Charge       = 0
  Multiplicity = 2
  Electrons    = 21
  Nalpha       = 11
  Nbeta        = 10

  ==> Algorithm <==

  SCF Algorithm Type is DF.
  DIIS enabled.
  MOM disabled.
  Fractional occupation disabled.
  Guess Type is GWH.
  Energy threshold   = 1.00e-08
  Density threshold  = 1.00e-08
  Integral threshold = 0.00e+00

  ==> Primary Basis <==

  Basis Set: AUG-CC-PVDZ
    Blend: AUG-CC-PVDZ
    Number of shells: 38
    Number of basis function: 96
    Number of Cartesian functions: 104
    Spherical Harmonics?: true
    Max angular momentum: 2

   => Loading Basis Set <=

    Name: (AUG-CC-PVDZ AUX)
    Role: JKFIT
    Keyword: DF_BASIS_SCF
    atoms 1 entry AR         line   854 file /home/touko/psi4conda/share/psi4/basis/aug-cc-pvdz-jkfit.gbs 
    atoms 2 entry C          line   154 file /home/touko/psi4conda/share/psi4/basis/aug-cc-pvdz-jkfit.gbs 
    atoms 3 entry N          line   212 file /home/touko/psi4conda/share/psi4/basis/aug-cc-pvdz-jkfit.gbs 
    atoms 4 entry O          line   270 file /home/touko/psi4conda/share/psi4/basis/aug-cc-pvdz-jkfit.gbs 

  ==> Pre-Iterations <==

   -------------------------------------------------------
    Irrep   Nso     Nmo     Nalpha   Nbeta   Ndocc  Nsocc
   -------------------------------------------------------
     A         96      96       0       0       0       0
   -------------------------------------------------------
    Total      96      96      11      10      10       1
   -------------------------------------------------------

  ==> Integral Setup <==

  ==> DiskDFJK: Density-Fitted J/K Matrices <==

    J tasked:                  Yes
    K tasked:                  Yes
    wK tasked:                  No
    OpenMP threads:              1
    Integrals threads:           1
    Memory (MB):               375
    Algorithm:                Core
    Integral Cache:           LOAD
    Schwarz Cutoff:          1E-12
    Fitting Condition:       1E-12

   => Auxiliary Basis Set <=

  Basis Set: (AUG-CC-PVDZ AUX)
    Blend: AUG-CC-PVDZ-JKFIT
    Number of shells: 124
    Number of basis function: 386
    Number of Cartesian functions: 453
    Spherical Harmonics?: true
    Max angular momentum: 3

  Minimum eigenvalue in the overlap matrix is 6.8855578444E-04.
  Using Symmetric Orthogonalization.

  SCF Guess: Generalized Wolfsberg-Helmholtz.

  ==> Iterations <==

                           Total Energy        Delta E     RMS |[F,P]|

   @DF-UHF iter   1:  -156.50919264996691   -1.56509e+02   2.07622e-01 
   @DF-UHF iter   2:  -163.47024918885774   -6.96106e+00   2.82134e-02 DIIS
   @DF-UHF iter   3:  -158.35747417338385    5.11278e+00   3.37978e-02 DIIS
   @DF-UHF iter   4:  -166.50972733468356   -8.15225e+00   1.03674e-02 DIIS
   @DF-UHF iter   5:  -167.06901645704397   -5.59289e-01   1.93340e-03 DIIS
   @DF-UHF iter   6:  -167.11329699734887   -4.42805e-02   1.13622e-03 DIIS
   @DF-UHF iter   7:  -167.12804745570054   -1.47505e-02   1.05325e-03 DIIS
   @DF-UHF iter   8:  -167.14283480672219   -1.47874e-02   6.15066e-04 DIIS
   @DF-UHF iter   9:  -167.15103878604015   -8.20398e-03   2.32618e-04 DIIS
   @DF-UHF iter  10:  -167.15195520086019   -9.16415e-04   2.16605e-04 DIIS
   @DF-UHF iter  11:  -167.15324170486707   -1.28650e-03   1.12654e-04 DIIS
   @DF-UHF iter  12:  -167.15341466934427   -1.72964e-04   9.24014e-05 DIIS
   @DF-UHF iter  13:  -167.15363789178758   -2.23222e-04   2.30177e-05 DIIS
   @DF-UHF iter  14:  -167.15365345155112   -1.55598e-05   1.45182e-05 DIIS
   @DF-UHF iter  15:  -167.15365828198770   -4.83044e-06   3.26853e-06 DIIS
   @DF-UHF iter  16:  -167.15365858789031   -3.05903e-07   1.21214e-06 DIIS
   @DF-UHF iter  17:  -167.15365862567668   -3.77864e-08   7.99197e-07 DIIS
   @DF-UHF iter  18:  -167.15365865120552   -2.55288e-08   5.59174e-07 DIIS
   @DF-UHF iter  19:  -167.15365866949310   -1.82876e-08   2.24802e-07 DIIS
   @DF-UHF iter  20:  -167.15365867289728   -3.40418e-09   9.42928e-08 DIIS
   @DF-UHF iter  21:  -167.15365867313253   -2.35246e-10   2.07346e-08 DIIS
   @DF-UHF iter  22:  -167.15365867314139   -8.86757e-12   6.08873e-09 DIIS

  ==> Post-Iterations <==

   @Spin Contamination Metric:   9.205567492E-02
   @S^2 Expected:                7.500000000E-01
   @S^2 Observed:                8.420556749E-01
   @S   Expected:                5.000000000E-01
   @S   Observed:                5.000000000E-01

    Orbital Energies [Eh]
    ---------------------

    Alpha Occupied:                                                       

       1A    -20.707926     2A    -15.662935     3A    -11.424855  
       4A     -1.542438     5A     -1.295997     6A     -0.809482  
       7A     -0.728356     8A     -0.696253     9A     -0.647522  
      10A     -0.553724    11A     -0.495229  

    Alpha Virtual:                                                        

      12A      0.053293    13A      0.077518    14A      0.081946  
      15A      0.085559    16A      0.111883    17A      0.136489  
      18A      0.139072    19A      0.191288    20A      0.199494  
      21A      0.213360    22A      0.215337    23A      0.220686  
      24A      0.232684    25A      0.256269    26A      0.282445  
      27A      0.292066    28A      0.342126    29A      0.347357  
      30A      0.402087    31A      0.402092    32A      0.484797  
      33A      0.567542    34A      0.584554    35A      0.585698  
      36A      0.659981    37A      0.679664    38A      0.694718  
      39A      0.732087    40A      0.733548    41A      0.736811  
      42A      0.739798    43A      0.741919    44A      0.761967  
      45A      0.797280    46A      0.805550    47A      0.825706  
      48A      0.825937    49A      0.927667    50A      0.949675  
      51A      1.012134    52A      1.023612    53A      1.099938  
      54A      1.100185    55A      1.118646    56A      1.201654  
      57A      1.221389    58A      1.388152    59A      1.531246  
      60A      1.548278    61A      1.577787    62A      1.598577  
      63A      1.598594    64A      1.716801    65A      1.716919  
      66A      1.739589    67A      2.071681    68A      2.096707  
      69A      2.117052    70A      2.369656    71A      2.472582  
      72A      2.473182    73A      2.491127    74A      2.493447  
      75A      2.498792    76A      2.645357    77A      2.829853  
      78A      2.876281    79A      2.906394    80A      3.121846  
      81A      3.121848    82A      3.178641    83A      3.179286  
      84A      3.258332    85A      3.325589    86A      3.539261  
      87A      3.539382    88A      3.648044    89A      3.737867  
      90A      3.763142    91A      4.103217    92A      9.274853  
      93A     27.752023    94A     27.752067    95A     27.984544  
      96A    176.955904  

    Beta Occupied:                                                        

       1A    -20.687037     2A    -15.636133     3A    -11.434960  
       4A     -1.497380     5A     -1.202524     6A     -0.784270  
       7A     -0.690111     8A     -0.603035     9A     -0.597402  
      10A     -0.450271  

    Beta Virtual:                                                         

      11A     -0.022442    12A      0.053819    13A      0.077814  
      14A      0.085642    15A      0.085995    16A      0.112406  
      17A      0.138468    18A      0.141394    19A      0.191955  
      20A      0.206556    21A      0.224008    22A      0.226831  
      23A      0.232914    24A      0.247336    25A      0.257818  
      26A      0.298439    27A      0.343092    28A      0.348369  
      29A      0.351798    30A      0.401106    31A      0.401326  
      32A      0.488102    33A      0.569321    34A      0.585310  
      35A      0.585636    36A      0.660672    37A      0.699410  
      38A      0.709322    39A      0.719504    40A      0.726928  
      41A      0.738470    42A      0.756590    43A      0.757198  
      44A      0.767790    45A      0.807669    46A      0.815446  
      47A      0.831703    48A      0.831812    49A      0.931254  
      50A      0.954978    51A      1.024065    52A      1.026992  
      53A      1.112226    54A      1.112264    55A      1.134874  
      56A      1.228197    57A      1.248903    58A      1.394586  
      59A      1.543142    60A      1.581734    61A      1.581907  
      62A      1.591559    63A      1.606415    64A      1.722471  
      65A      1.745416    66A      1.775476    67A      2.073710  
      68A      2.118393    69A      2.120220    70A      2.389132  
      71A      2.472709    72A      2.473111    73A      2.499730  
      74A      2.563955    75A      2.564514    76A      2.647007  
      77A      2.840644    78A      2.918075    79A      2.921587  
      80A      3.121947    81A      3.121947    82A      3.178968  
      83A      3.179340    84A      3.269897    85A      3.334569  
      86A      3.584137    87A      3.584154    88A      3.657965  
      89A      3.770397    90A      3.778251    91A      4.121162  
      92A      9.274858    93A     27.752024    94A     27.752065  
      95A     27.984548    96A    176.955904  

    Final Occupation by Irrep:
              A 
    DOCC [    10 ]
    SOCC [     1 ]

  Energy converged.

  @DF-UHF Final Energy:  -167.15365867314139

   => Energetics <=

    Nuclear Repulsion Energy =             51.9586267144115723
    One-Electron Energy =                -330.0767330729811420
    Two-Electron Energy =                 110.9644476854281692
    Total Energy =                       -167.1536586731413649


  UHF NO Occupations:
  HONO-2 :    9  A 1.9949073
  HONO-1 :   10  A 1.9613280
  HONO-0 :   11  A 1.0000000
  LUNO+0 :   12  A 0.0386720
  LUNO+1 :   13  A 0.0050927
  LUNO+2 :   14  A 0.0017889
  LUNO+3 :   15  A 0.0006463



Properties will be evaluated at   0.000000,   0.000000,   0.000000 [a0]

Properties computed using the SCF density matrix

  Nuclear Dipole Moment: [e a0]
     X:     0.0000      Y:     0.0000      Z:    -1.4734

  Electronic Dipole Moment: [e a0]
     X:     0.0000      Y:    -0.0000      Z:     1.1762

  Dipole Moment: [e a0]
     X:     0.0000      Y:    -0.0000      Z:    -0.2972     Total:     0.2972

  Dipole Moment: [D]
     X:     0.0000      Y:    -0.0000      Z:    -0.7555     Total:     0.7555


*** tstop() called on Touko at Sat Jan  5 23:28:35 2019
Module time:
	user time   =       1.56 seconds =       0.03 minutes
	system time =       0.03 seconds =       0.00 minutes
	total time  =          2 seconds =       0.03 minutes
Total time:
	user time   =       4.72 seconds =       0.08 minutes
	system time =       0.23 seconds =       0.00 minutes
	total time  =          5 seconds =       0.08 minutes
  Constructing Basis Sets for SAPT...

   => Loading Basis Set <=

    Name: (AUG-CC-PVDZ AUX)
    Role: RIFIT
    Keyword: DF_BASIS_SAPT
    atoms 1 entry AR         line   632 file /home/touko/psi4conda/share/psi4/basis/aug-cc-pvdz-ri.gbs 
    atoms 2 entry C          line   112 file /home/touko/psi4conda/share/psi4/basis/aug-cc-pvdz-ri.gbs 
    atoms 3 entry N          line   158 file /home/touko/psi4conda/share/psi4/basis/aug-cc-pvdz-ri.gbs 
    atoms 4 entry O          line   204 file /home/touko/psi4conda/share/psi4/basis/aug-cc-pvdz-ri.gbs 


  //>>>>>>>>>>>>>>>>>>>>>>>>>>>>>>>>>>>//
  //               SAPT0               //
  //<<<<<<<<<<<<<<<<<<<<<<<<<<<<<<<<<<<//


*** tstart() called on Touko
*** at Sat Jan  5 23:28:35 2019

	 --------------------------------------------------------
	                         SAPT                      
	               Rob Parrish and Ed Hohenstein             
	                Open-shell: Jérôme Gonthier              
	 --------------------------------------------------------

  ==> Sizes <==

   => Resources <=

    Memory (MB):               450

   => Orbital Ranges <=

    ------------------
    Range    M_A   M_B
    ------------------
    natom      1     3
    nso       96    96
    ------------------
      Alpha orbitals  
    ------------------
    nmo       96    96
    nocc       9    11
    nvir      87    85
    nfocc      0     0
    naocc      9    11
    navir     87    85
    nfvir      0     0
    ------------------
      Beta orbitals  
    ------------------
    nmo       96    96
    nocc       9    10
    nvir      87    86
    nfocc      0     0
    naocc      9    10
    navir     87    86
    nfvir      0     0
    ------------------

   => Primary Basis Set <=

  Basis Set: AUG-CC-PVDZ
    Blend: AUG-CC-PVDZ
    Number of shells: 38
    Number of basis function: 96
    Number of Cartesian functions: 104
    Spherical Harmonics?: true
    Max angular momentum: 2

  SCF TERMS:

  ==> DiskDFJK: Density-Fitted J/K Matrices <==

    J tasked:                  Yes
    K tasked:                  Yes
    wK tasked:                  No
    OpenMP threads:              1
    Integrals threads:           1
    Memory (MB):               448
    Algorithm:                Core
    Integral Cache:           NONE
    Schwarz Cutoff:          1E-12
    Fitting Condition:       1E-12

   => Auxiliary Basis Set <=

  Basis Set: (AUG-CC-PVDZ AUX)
    Blend: AUG-CC-PVDZ-JKFIT
    Number of shells: 124
    Number of basis function: 386
    Number of Cartesian functions: 453
    Spherical Harmonics?: true
    Max angular momentum: 3

    Elst10,r            =    -0.005092799825 H
    Exch10              =     0.015475438748 H
    Exch10(S^2)         =     0.015312571626 H

    Exch10(S^2) DM      =     0.015312571626 H

    Ind20,u (A<-B)      =    -0.001520885953 H
    Ind20,u (B<-A)      =    -0.003862603224 H
    Ind20,u             =    -0.005383489177 H
    Exch-Ind20,u (A<-B) =     0.001282112245 H
    Exch-Ind20,u (B<-A) =     0.003693681338 H
    Exch-Ind20,u        =     0.004975793583 H

  ==> CPKS Iterations <==

    Maxiter     =          50
    Convergence =   1.000E-09

    -----------------------------------------
    Iter   Monomer A    Monomer B    Time [s]
    -----------------------------------------
    1      1.280E-01    1.441E-01           0
    2      2.436E-02    2.180E-02           1
    3      5.149E-03    1.154E-02           1
    4      8.695E-04    3.862E-03           1
    5      7.564E-05    3.392E-03           1
    6      9.063E-06    2.765E-03           1
    7      2.675E-06    1.553E-03           2
    8      3.468E-07    7.716E-04           2
    9      2.088E-08    1.944E-04           2
    10     1.284E-09    9.368E-05           2
    11     1.989E-10*   2.309E-05           2
    12     1.989E-10*   9.405E-06           2
    13     1.989E-10*   4.203E-06           2
    14     1.989E-10*   2.915E-06           3
    15     1.989E-10*   1.674E-06           3
    16     1.989E-10*   5.184E-07           3
    17     1.989E-10*   7.772E-08           3
    18     1.989E-10*   7.941E-09           3
    19     1.989E-10*   1.524E-09           3
    20     1.989E-10*   4.504E-10*          3
    -----------------------------------------

    Ind20,r (A<-B)      =    -0.001758215938 H
    Ind20,r (B<-A)      =    -0.004618143256 H
    Ind20,r             =    -0.006376359194 H
    Exch-Ind20,r (A<-B) =     0.001545705337 H
    Exch-Ind20,r (B<-A) =     0.004444519054 H
    Exch-Ind20,r        =     0.005990224390 H

  PT2 TERMS:

    Disp20              =    -0.004658722066 H
    Exch-Disp20         =     0.000864543820 H


    SAPT Results 
  --------------------------------------------------------------------------------------------------------
    Electrostatics                 -5.09279982 [mEh]      -3.19578027 [kcal/mol]     -13.37114594 [kJ/mol]
      Elst10,r                     -5.09279982 [mEh]      -3.19578027 [kcal/mol]     -13.37114594 [kJ/mol]

    Exchange                       15.47543875 [mEh]       9.71098483 [kcal/mol]      40.63076443 [kJ/mol]
      Exch10                       15.47543875 [mEh]       9.71098483 [kcal/mol]      40.63076443 [kJ/mol]
      Exch10(S^2)                  15.31257163 [mEh]       9.60878416 [kcal/mol]      40.20315680 [kJ/mol]

    Induction                      -1.04454969 [mEh]      -0.65546486 [kcal/mol]      -2.74246522 [kJ/mol]
      Ind20,r                      -6.37635919 [mEh]      -4.00122597 [kcal/mol]     -16.74113106 [kJ/mol]
      Exch-Ind20,r                  5.99022439 [mEh]       3.75892271 [kcal/mol]      15.72733414 [kJ/mol]
      delta HF,r (2)               -0.65841489 [mEh]      -0.41316160 [kcal/mol]      -1.72866830 [kJ/mol]

    Dispersion                     -3.79417825 [mEh]      -2.38088289 [kcal/mol]      -9.96161499 [kJ/mol]
      Disp20                       -4.65872207 [mEh]      -2.92339235 [kcal/mol]     -12.23147478 [kJ/mol]
      Exch-Disp20                   0.86454382 [mEh]       0.54250946 [kcal/mol]       2.26985980 [kJ/mol]

  Total HF                          9.33808923 [mEh]       5.85973970 [kcal/mol]      24.51715327 [kJ/mol]
  Total SAPT0                       5.54391098 [mEh]       3.47885681 [kcal/mol]      14.55553828 [kJ/mol]
  --------------------------------------------------------------------------------------------------------

*** tstop() called on Touko at Sat Jan  5 23:28:40 2019
Module time:
	user time   =       4.78 seconds =       0.08 minutes
	system time =       0.29 seconds =       0.00 minutes
	total time  =          5 seconds =       0.08 minutes
Total time:
	user time   =       9.56 seconds =       0.16 minutes
	system time =       0.52 seconds =       0.01 minutes
	total time  =         10 seconds =       0.17 minutes
Molecule: Setting geometry variable R to 4.163102
  SAPT does not make use of molecular symmetry, further calculations in C1 point group.

  //>>>>>>>>>>>>>>>>>>>>>>>>>>>>>>>>>>>//
  //              Dimer HF             //
  //<<<<<<<<<<<<<<<<<<<<<<<<<<<<<<<<<<<//


*** tstart() called on Touko
*** at Sat Jan  5 23:28:40 2019

   => Loading Basis Set <=

    Name: AUG-CC-PVDZ
    Role: ORBITAL
    Keyword: BASIS
    atoms 1 entry AR         line   830 file /home/touko/psi4conda/share/psi4/basis/aug-cc-pvdz.gbs 
    atoms 2 entry C          line   178 file /home/touko/psi4conda/share/psi4/basis/aug-cc-pvdz.gbs 
    atoms 3 entry N          line   214 file /home/touko/psi4conda/share/psi4/basis/aug-cc-pvdz.gbs 
    atoms 4 entry O          line   250 file /home/touko/psi4conda/share/psi4/basis/aug-cc-pvdz.gbs 


         ---------------------------------------------------------
                                   SCF
            by Justin Turney, Rob Parrish, Andy Simmonett
                             and Daniel Smith
                              UHF Reference
                        1 Threads,    500 MiB Core
         ---------------------------------------------------------

  ==> Geometry <==

    Molecular point group: c1
    Full point group: C_inf_v

    Geometry (in Angstrom), charge = 0, multiplicity = 2:

       Center              X                  Y                   Z               Mass       
    ------------   -----------------  -----------------  -----------------  -----------------
         AR           0.000000000000     0.000000000000     4.163102000000    39.962383122510
         C            0.000000000000     0.000000000000     0.000000000000    12.000000000000
         N            0.000000000000     0.000000000000     1.231991000000    14.003074004780
         O            0.000000000000     0.000000000000    -1.175455000000    15.994914619560

  Running in c1 symmetry.

  Rotational constants: A = ************  B =      0.02291  C =      0.02291 [cm^-1]
  Rotational constants: A = ************  B =    686.69474  C =    686.69474 [MHz]
  Nuclear repulsion =  102.708249391333709

  Charge       = 0
  Multiplicity = 2
  Electrons    = 39
  Nalpha       = 20
  Nbeta        = 19

  ==> Algorithm <==

  SCF Algorithm Type is DF.
  DIIS enabled.
  MOM disabled.
  Fractional occupation disabled.
  Guess Type is GWH.
  Energy threshold   = 1.00e-08
  Density threshold  = 1.00e-08
  Integral threshold = 0.00e+00

  ==> Primary Basis <==

  Basis Set: AUG-CC-PVDZ
    Blend: AUG-CC-PVDZ
    Number of shells: 38
    Number of basis function: 96
    Number of Cartesian functions: 104
    Spherical Harmonics?: true
    Max angular momentum: 2

   => Loading Basis Set <=

    Name: (AUG-CC-PVDZ AUX)
    Role: JKFIT
    Keyword: DF_BASIS_SCF
    atoms 1 entry AR         line   854 file /home/touko/psi4conda/share/psi4/basis/aug-cc-pvdz-jkfit.gbs 
    atoms 2 entry C          line   154 file /home/touko/psi4conda/share/psi4/basis/aug-cc-pvdz-jkfit.gbs 
    atoms 3 entry N          line   212 file /home/touko/psi4conda/share/psi4/basis/aug-cc-pvdz-jkfit.gbs 
    atoms 4 entry O          line   270 file /home/touko/psi4conda/share/psi4/basis/aug-cc-pvdz-jkfit.gbs 

  ==> Pre-Iterations <==

   -------------------------------------------------------
    Irrep   Nso     Nmo     Nalpha   Nbeta   Ndocc  Nsocc
   -------------------------------------------------------
     A         96      96       0       0       0       0
   -------------------------------------------------------
    Total      96      96      20      19      19       1
   -------------------------------------------------------

  ==> Integral Setup <==

  ==> DiskDFJK: Density-Fitted J/K Matrices <==

    J tasked:                  Yes
    K tasked:                  Yes
    wK tasked:                  No
    OpenMP threads:              1
    Integrals threads:           1
    Memory (MB):               375
    Algorithm:                Core
    Integral Cache:           SAVE
    Schwarz Cutoff:          1E-12
    Fitting Condition:       1E-12

   => Auxiliary Basis Set <=

  Basis Set: (AUG-CC-PVDZ AUX)
    Blend: AUG-CC-PVDZ-JKFIT
    Number of shells: 124
    Number of basis function: 386
    Number of Cartesian functions: 453
    Spherical Harmonics?: true
    Max angular momentum: 3

  Minimum eigenvalue in the overlap matrix is 6.8821387480E-04.
  Using Symmetric Orthogonalization.

  SCF Guess: Generalized Wolfsberg-Helmholtz.

  ==> Iterations <==

                           Total Energy        Delta E     RMS |[F,P]|

   @DF-UHF iter   1:  -691.64811891166312   -6.91648e+02   3.91768e-02 
   @DF-UHF iter   2:  -693.25634068584577   -1.60822e+00   1.39622e-02 DIIS
   @DF-UHF iter   3:  -693.57490896844547   -3.18568e-01   9.79971e-03 DIIS
   @DF-UHF iter   4:  -693.93633763926755   -3.61429e-01   1.31986e-03 DIIS
   @DF-UHF iter   5:  -693.94623670403826   -9.89906e-03   5.95589e-04 DIIS
   @DF-UHF iter   6:  -693.94861785562171   -2.38115e-03   2.04571e-04 DIIS
   @DF-UHF iter   7:  -693.94940469320341   -7.86838e-04   1.15185e-04 DIIS
   @DF-UHF iter   8:  -693.94974433176367   -3.39639e-04   7.74070e-05 DIIS
   @DF-UHF iter   9:  -693.94999664554598   -2.52314e-04   4.56490e-05 DIIS
   @DF-UHF iter  10:  -693.95012494436094   -1.28299e-04   2.60020e-05 DIIS
   @DF-UHF iter  11:  -693.95016514443159   -4.02001e-05   8.21815e-06 DIIS
   @DF-UHF iter  12:  -693.95016768827736   -2.54385e-06   2.19505e-06 DIIS
   @DF-UHF iter  13:  -693.95016782195796   -1.33681e-07   6.98496e-07 DIIS
   @DF-UHF iter  14:  -693.95016783160463   -9.64667e-09   2.04186e-07 DIIS
   @DF-UHF iter  15:  -693.95016783225697   -6.52335e-10   8.45187e-08 DIIS
   @DF-UHF iter  16:  -693.95016783238020   -1.23237e-10   5.14109e-08 DIIS
   @DF-UHF iter  17:  -693.95016783246115   -8.09450e-11   3.80774e-08 DIIS
   @DF-UHF iter  18:  -693.95016783253345   -7.23048e-11   1.81997e-08 DIIS
   @DF-UHF iter  19:  -693.95016783255096   -1.75078e-11   6.44080e-09 DIIS

  ==> Post-Iterations <==

   @Spin Contamination Metric:   9.160877987E-02
   @S^2 Expected:                7.500000000E-01
   @S^2 Observed:                8.416087799E-01
   @S   Expected:                5.000000000E-01
   @S   Observed:                5.000000000E-01

    Orbital Energies [Eh]
    ---------------------

    Alpha Occupied:                                                       

       1A   -118.594208     2A    -20.708428     3A    -15.661487  
       4A    -12.306505     5A    -11.425043     6A     -9.555150  
       7A     -9.555128     8A     -9.555051     9A     -1.542943  
      10A     -1.296581    11A     -1.263749    12A     -0.810121  
      13A     -0.728821    14A     -0.696762    15A     -0.657203  
      16A     -0.578354    17A     -0.577722    18A     -0.567956  
      19A     -0.553597    20A     -0.495457  

    Alpha Virtual:                                                        

      21A      0.055107    22A      0.082869    23A      0.086665  
      24A      0.089658    25A      0.131336    26A      0.156537  
      27A      0.159735    28A      0.198417    29A      0.209592  
      30A      0.210353    31A      0.211881    32A      0.218728  
      33A      0.245480    34A      0.280185    35A      0.287674  
      36A      0.289909    37A      0.344730    38A      0.389702  
      39A      0.401382    40A      0.401464    41A      0.485295  
      42A      0.552225    43A      0.552226    44A      0.570016  
      45A      0.571904    46A      0.582599    47A      0.685425  
      48A      0.700584    49A      0.727153    50A      0.734121  
      51A      0.738598    52A      0.753516    53A      0.754446  
      54A      0.773303    55A      0.885822    56A      0.898090  
      57A      0.900758    58A      0.986565    59A      1.012448  
      60A      1.016587    61A      1.098099    62A      1.098431  
      63A      1.125352    64A      1.195006    65A      1.214351  
      66A      1.341176    67A      1.452565    68A      1.506676  
      69A      1.543169    70A      1.571767    71A      1.595846  
      72A      1.595856    73A      1.627313    74A      1.627313  
      75A      1.640807    76A      1.649946    77A      1.745991  
      78A      1.750663    79A      1.762016    80A      1.887213  
      81A      2.093957    82A      2.114371    83A      2.378835  
      84A      2.476877    85A      2.492780    86A      2.494505  
      87A      2.820341    88A      2.870470    89A      2.900745  
      90A      3.274473    91A      3.538418    92A      3.538689  
      93A      3.576214    94A      3.737120    95A      3.762377  
      96A      4.102926  

    Beta Occupied:                                                        

       1A   -118.594226     2A    -20.687520     3A    -15.634909  
       4A    -12.306529     5A    -11.435120     6A     -9.555142  
       7A     -9.555141     8A     -9.555121     9A     -1.497841  
      10A     -1.264104    11A     -1.203086    12A     -0.784904  
      13A     -0.690483    14A     -0.622195    15A     -0.597878  
      16A     -0.577730    17A     -0.577699    18A     -0.559278  
      19A     -0.450921  

    Beta Virtual:                                                         

      20A     -0.023139    21A      0.055458    22A      0.086774  
      23A      0.087209    24A      0.090301    25A      0.131515  
      26A      0.158606    27A      0.162937    28A      0.202830  
      29A      0.209988    30A      0.220094    31A      0.222503  
      32A      0.246244    33A      0.248053    34A      0.287770  
      35A      0.296288    36A      0.347543    37A      0.349494  
      38A      0.390677    39A      0.400446    40A      0.400704  
      41A      0.488773    42A      0.552352    43A      0.552353  
      44A      0.570063    45A      0.571079    46A      0.585467  
      47A      0.706969    48A      0.717883    49A      0.726221  
      50A      0.729531    51A      0.731748    52A      0.774298  
      53A      0.777669    54A      0.780568    55A      0.898550  
      56A      0.902788    57A      0.904069    58A      0.992862  
      59A      1.017180    60A      1.019297    61A      1.110381  
      62A      1.110402    63A      1.139700    64A      1.220573  
      65A      1.240538    66A      1.345270    67A      1.457275  
      68A      1.516056    69A      1.579871    70A      1.580025  
      71A      1.584554    72A      1.599262    73A      1.626610  
      74A      1.626612    75A      1.652753    76A      1.660013  
      77A      1.755699    78A      1.766308    79A      1.790130  
      80A      1.889687    81A      2.115713    82A      2.117586  
      83A      2.399166    84A      2.482557    85A      2.563142  
      86A      2.563670    87A      2.831632    88A      2.912220  
      89A      2.915714    90A      3.294577    91A      3.581114  
      92A      3.583513    93A      3.588572    94A      3.769667  
      95A      3.777513    96A      4.120919  

    Final Occupation by Irrep:
              A 
    DOCC [    19 ]
    SOCC [     1 ]

  Energy converged.

  @DF-UHF Final Energy:  -693.95016783255096

   => Energetics <=

    Nuclear Repulsion Energy =            102.7082493913337089
    One-Electron Energy =               -1160.0367405437739308
    Two-Electron Energy =                 363.3783233198892049
    Total Energy =                       -693.9501678325509602


  UHF NO Occupations:
  HONO-2 :   18  A 1.9950464
  HONO-1 :   19  A 1.9613378
  HONO-0 :   20  A 1.0000000
  LUNO+0 :   21  A 0.0386622
  LUNO+1 :   22  A 0.0049536
  LUNO+2 :   23  A 0.0017401
  LUNO+3 :   24  A 0.0006332



Properties will be evaluated at   0.000000,   0.000000,   0.000000 [a0]

Properties computed using the SCF density matrix

  Nuclear Dipole Moment: [e a0]
     X:     0.0000      Y:     0.0000      Z:   140.1348

  Electronic Dipole Moment: [e a0]
     X:     0.0000      Y:    -0.0000      Z:  -140.4932

  Dipole Moment: [e a0]
     X:     0.0000      Y:    -0.0000      Z:    -0.3585     Total:     0.3585

  Dipole Moment: [D]
     X:     0.0000      Y:    -0.0000      Z:    -0.9111     Total:     0.9111


*** tstop() called on Touko at Sat Jan  5 23:28:42 2019
Module time:
	user time   =       1.84 seconds =       0.03 minutes
	system time =       0.04 seconds =       0.00 minutes
	total time  =          2 seconds =       0.03 minutes
Total time:
	user time   =      11.42 seconds =       0.19 minutes
	system time =       0.56 seconds =       0.01 minutes
	total time  =         12 seconds =       0.20 minutes

  //>>>>>>>>>>>>>>>>>>>>>>>>>>>>>>>>>>>//
  //            Monomer A HF           //
  //<<<<<<<<<<<<<<<<<<<<<<<<<<<<<<<<<<<//


*** tstart() called on Touko
*** at Sat Jan  5 23:28:42 2019

   => Loading Basis Set <=

    Name: AUG-CC-PVDZ
    Role: ORBITAL
    Keyword: BASIS
    atoms 1 entry AR         line   830 file /home/touko/psi4conda/share/psi4/basis/aug-cc-pvdz.gbs 
    atoms 2 entry C          line   178 file /home/touko/psi4conda/share/psi4/basis/aug-cc-pvdz.gbs 
    atoms 3 entry N          line   214 file /home/touko/psi4conda/share/psi4/basis/aug-cc-pvdz.gbs 
    atoms 4 entry O          line   250 file /home/touko/psi4conda/share/psi4/basis/aug-cc-pvdz.gbs 


         ---------------------------------------------------------
                                   SCF
            by Justin Turney, Rob Parrish, Andy Simmonett
                             and Daniel Smith
                              UHF Reference
                        1 Threads,    500 MiB Core
         ---------------------------------------------------------

  ==> Geometry <==

    Molecular point group: c1
    Full point group: C_inf_v

    Geometry (in Angstrom), charge = 0, multiplicity = 1:

       Center              X                  Y                   Z               Mass       
    ------------   -----------------  -----------------  -----------------  -----------------
         AR           0.000000000000     0.000000000000     4.163102000000    39.962383122510
      Gh(C)           0.000000000000     0.000000000000     0.000000000000    12.000000000000
      Gh(N)           0.000000000000     0.000000000000     1.231991000000    14.003074004780
      Gh(O)           0.000000000000     0.000000000000    -1.175455000000    15.994914619560

  Running in c1 symmetry.

  Rotational constants: A = ************  B =      0.02291  C =      0.02291 [cm^-1]
  Rotational constants: A = ************  B =    686.69474  C =    686.69474 [MHz]
  Nuclear repulsion =    0.000000000000000

  Charge       = 0
  Multiplicity = 1
  Electrons    = 18
  Nalpha       = 9
  Nbeta        = 9

  ==> Algorithm <==

  SCF Algorithm Type is DF.
  DIIS enabled.
  MOM disabled.
  Fractional occupation disabled.
  Guess Type is GWH.
  Energy threshold   = 1.00e-08
  Density threshold  = 1.00e-08
  Integral threshold = 0.00e+00

  ==> Primary Basis <==

  Basis Set: AUG-CC-PVDZ
    Blend: AUG-CC-PVDZ
    Number of shells: 38
    Number of basis function: 96
    Number of Cartesian functions: 104
    Spherical Harmonics?: true
    Max angular momentum: 2

   => Loading Basis Set <=

    Name: (AUG-CC-PVDZ AUX)
    Role: JKFIT
    Keyword: DF_BASIS_SCF
    atoms 1 entry AR         line   854 file /home/touko/psi4conda/share/psi4/basis/aug-cc-pvdz-jkfit.gbs 
    atoms 2 entry C          line   154 file /home/touko/psi4conda/share/psi4/basis/aug-cc-pvdz-jkfit.gbs 
    atoms 3 entry N          line   212 file /home/touko/psi4conda/share/psi4/basis/aug-cc-pvdz-jkfit.gbs 
    atoms 4 entry O          line   270 file /home/touko/psi4conda/share/psi4/basis/aug-cc-pvdz-jkfit.gbs 

  ==> Pre-Iterations <==

   -------------------------------------------------------
    Irrep   Nso     Nmo     Nalpha   Nbeta   Ndocc  Nsocc
   -------------------------------------------------------
     A         96      96       0       0       0       0
   -------------------------------------------------------
    Total      96      96       9       9       9       0
   -------------------------------------------------------

  ==> Integral Setup <==

  ==> DiskDFJK: Density-Fitted J/K Matrices <==

    J tasked:                  Yes
    K tasked:                  Yes
    wK tasked:                  No
    OpenMP threads:              1
    Integrals threads:           1
    Memory (MB):               375
    Algorithm:                Core
    Integral Cache:           LOAD
    Schwarz Cutoff:          1E-12
    Fitting Condition:       1E-12

   => Auxiliary Basis Set <=

  Basis Set: (AUG-CC-PVDZ AUX)
    Blend: AUG-CC-PVDZ-JKFIT
    Number of shells: 124
    Number of basis function: 386
    Number of Cartesian functions: 453
    Spherical Harmonics?: true
    Max angular momentum: 3

  Minimum eigenvalue in the overlap matrix is 6.8821387480E-04.
  Using Symmetric Orthogonalization.

  SCF Guess: Generalized Wolfsberg-Helmholtz.

  ==> Iterations <==

                           Total Energy        Delta E     RMS |[F,P]|

   @DF-UHF iter   1:  -492.71686652360285   -4.92717e+02   1.14068e-01 
   @DF-UHF iter   2:  -525.67318577880428   -3.29563e+01   1.37488e-02 DIIS
   @DF-UHF iter   3:  -526.74851008493204   -1.07532e+00   3.81398e-03 DIIS
   @DF-UHF iter   4:  -526.80082751412351   -5.23174e-02   2.32685e-04 DIIS
   @DF-UHF iter   5:  -526.80112540591472   -2.97892e-04   2.73045e-05 DIIS
   @DF-UHF iter   6:  -526.80113204251927   -6.63660e-06   6.12435e-06 DIIS
   @DF-UHF iter   7:  -526.80113232312749   -2.80608e-07   1.01528e-06 DIIS
   @DF-UHF iter   8:  -526.80113233266457   -9.53708e-09   2.64474e-07 DIIS
   @DF-UHF iter   9:  -526.80113233369264   -1.02807e-09   2.07894e-08 DIIS
   @DF-UHF iter  10:  -526.80113233369684   -4.20641e-12   3.02250e-09 DIIS

  ==> Post-Iterations <==

   @Spin Contamination Metric:  -3.730349363E-14
   @S^2 Expected:                0.000000000E+00
   @S^2 Observed:               -3.730349363E-14
   @S   Expected:                0.000000000E+00
   @S   Observed:                0.000000000E+00

    Orbital Energies [Eh]
    ---------------------

    Alpha Occupied:                                                       

       1A   -118.610885     2A    -12.322820     3A     -9.571482  
       4A     -9.571447     5A     -9.571447     6A     -1.278737  
       7A     -0.592180     8A     -0.592049     9A     -0.592049  

    Alpha Virtual:                                                        

      10A      0.044181    11A      0.076949    12A      0.082737  
      13A      0.082737    14A      0.125152    15A      0.154493  
      16A      0.154493    17A      0.181660    18A      0.198169  
      19A      0.198169    20A      0.199986    21A      0.235683  
      22A      0.246259    23A      0.246259    24A      0.285890  
      25A      0.371052    26A      0.475727    27A      0.500598  
      28A      0.500598    29A      0.507387    30A      0.507387  
      31A      0.531578    32A      0.540757    33A      0.540757  
      34A      0.576447    35A      0.576447    36A      0.585243  
      37A      0.585662    38A      0.585662    39A      0.646189  
      40A      0.836556    41A      0.860022    42A      0.860022  
      43A      0.882550    44A      0.882550    45A      0.967343  
      46A      0.967343    47A      1.011004    48A      1.052848  
      49A      1.100318    50A      1.100318    51A      1.172033  
      52A      1.251384    53A      1.251384    54A      1.278646  
      55A      1.303426    56A      1.303426    57A      1.351590  
      58A      1.482285    59A      1.482285    60A      1.483308  
      61A      1.612440    62A      1.612440    63A      1.654074  
      64A      1.661559    65A      1.661559    66A      1.848533  
      67A      2.223814    68A      2.223814    69A      2.759498  
      70A      2.785663    71A      2.785663    72A      3.058295  
      73A      3.308935    74A      3.308935    75A      3.332208  
      76A      3.386766    77A      3.386766    78A      3.709942  
      79A      3.750931    80A      3.750931    81A      4.305815  
      82A      4.545413    83A      4.635445    84A      4.635445  
      85A      4.887134    86A      4.887134    87A      5.095997  
      88A      5.095997    89A      5.282051    90A      5.986894  
      91A      5.986894    92A      6.524136    93A      7.625111  
      94A     18.791837    95A     25.256307    96A     33.539151  

    Beta Occupied:                                                        

       1A   -118.610885     2A    -12.322820     3A     -9.571482  
       4A     -9.571447     5A     -9.571447     6A     -1.278737  
       7A     -0.592180     8A     -0.592049     9A     -0.592049  

    Beta Virtual:                                                         

      10A      0.044181    11A      0.076949    12A      0.082737  
      13A      0.082737    14A      0.125152    15A      0.154493  
      16A      0.154493    17A      0.181660    18A      0.198169  
      19A      0.198169    20A      0.199986    21A      0.235683  
      22A      0.246259    23A      0.246259    24A      0.285890  
      25A      0.371052    26A      0.475727    27A      0.500598  
      28A      0.500598    29A      0.507387    30A      0.507387  
      31A      0.531578    32A      0.540757    33A      0.540757  
      34A      0.576447    35A      0.576447    36A      0.585243  
      37A      0.585662    38A      0.585662    39A      0.646189  
      40A      0.836556    41A      0.860022    42A      0.860022  
      43A      0.882550    44A      0.882550    45A      0.967343  
      46A      0.967343    47A      1.011004    48A      1.052848  
      49A      1.100318    50A      1.100318    51A      1.172033  
      52A      1.251384    53A      1.251384    54A      1.278646  
      55A      1.303426    56A      1.303426    57A      1.351590  
      58A      1.482285    59A      1.482285    60A      1.483308  
      61A      1.612440    62A      1.612440    63A      1.654074  
      64A      1.661559    65A      1.661559    66A      1.848533  
      67A      2.223814    68A      2.223814    69A      2.759498  
      70A      2.785663    71A      2.785663    72A      3.058295  
      73A      3.308935    74A      3.308935    75A      3.332208  
      76A      3.386766    77A      3.386766    78A      3.709942  
      79A      3.750931    80A      3.750931    81A      4.305815  
      82A      4.545413    83A      4.635445    84A      4.635445  
      85A      4.887134    86A      4.887134    87A      5.095997  
      88A      5.095997    89A      5.282051    90A      5.986894  
      91A      5.986894    92A      6.524136    93A      7.625111  
      94A     18.791837    95A     25.256307    96A     33.539151  

    Final Occupation by Irrep:
              A 
    DOCC [     9 ]
    SOCC [     0 ]

  Energy converged.

  @DF-UHF Final Energy:  -526.80113233369684

   => Energetics <=

    Nuclear Repulsion Energy =              0.0000000000000000
    One-Electron Energy =                -728.1960728329846688
    Two-Electron Energy =                 201.3949404992877703
    Total Energy =                       -526.8011323336968417


  UHF NO Occupations:
  HONO-2 :    7  A 2.0000000
  HONO-1 :    8  A 2.0000000
  HONO-0 :    9  A 2.0000000
  LUNO+0 :   10  A 0.0000000
  LUNO+1 :   11  A 0.0000000
  LUNO+2 :   12  A 0.0000000
  LUNO+3 :   13  A 0.0000000



Properties will be evaluated at   0.000000,   0.000000,   0.000000 [a0]

Properties computed using the SCF density matrix

  Nuclear Dipole Moment: [e a0]
     X:     0.0000      Y:     0.0000      Z:   141.6082

  Electronic Dipole Moment: [e a0]
     X:     0.0000      Y:    -0.0000      Z:  -141.6083

  Dipole Moment: [e a0]
     X:     0.0000      Y:    -0.0000      Z:    -0.0001     Total:     0.0001

  Dipole Moment: [D]
     X:     0.0000      Y:    -0.0000      Z:    -0.0003     Total:     0.0003


*** tstop() called on Touko at Sat Jan  5 23:28:43 2019
Module time:
	user time   =       0.83 seconds =       0.01 minutes
	system time =       0.00 seconds =       0.00 minutes
	total time  =          1 seconds =       0.02 minutes
Total time:
	user time   =      12.25 seconds =       0.20 minutes
	system time =       0.56 seconds =       0.01 minutes
	total time  =         13 seconds =       0.22 minutes

  //>>>>>>>>>>>>>>>>>>>>>>>>>>>>>>>>>>>//
  //            Monomer B HF           //
  //<<<<<<<<<<<<<<<<<<<<<<<<<<<<<<<<<<<//


*** tstart() called on Touko
*** at Sat Jan  5 23:28:43 2019

   => Loading Basis Set <=

    Name: AUG-CC-PVDZ
    Role: ORBITAL
    Keyword: BASIS
    atoms 1 entry AR         line   830 file /home/touko/psi4conda/share/psi4/basis/aug-cc-pvdz.gbs 
    atoms 2 entry C          line   178 file /home/touko/psi4conda/share/psi4/basis/aug-cc-pvdz.gbs 
    atoms 3 entry N          line   214 file /home/touko/psi4conda/share/psi4/basis/aug-cc-pvdz.gbs 
    atoms 4 entry O          line   250 file /home/touko/psi4conda/share/psi4/basis/aug-cc-pvdz.gbs 


         ---------------------------------------------------------
                                   SCF
            by Justin Turney, Rob Parrish, Andy Simmonett
                             and Daniel Smith
                              UHF Reference
                        1 Threads,    500 MiB Core
         ---------------------------------------------------------

  ==> Geometry <==

    Molecular point group: c1
    Full point group: C_inf_v

    Geometry (in Angstrom), charge = 0, multiplicity = 2:

       Center              X                  Y                   Z               Mass       
    ------------   -----------------  -----------------  -----------------  -----------------
      Gh(AR)          0.000000000000     0.000000000000     4.163102000000    39.962383122510
         C            0.000000000000     0.000000000000     0.000000000000    12.000000000000
         N            0.000000000000     0.000000000000     1.231991000000    14.003074004780
         O            0.000000000000     0.000000000000    -1.175455000000    15.994914619560

  Running in c1 symmetry.

  Rotational constants: A = ************  B =      0.02291  C =      0.02291 [cm^-1]
  Rotational constants: A = ************  B =    686.69474  C =    686.69474 [MHz]
  Nuclear repulsion =   51.958626714411572

  Charge       = 0
  Multiplicity = 2
  Electrons    = 21
  Nalpha       = 11
  Nbeta        = 10

  ==> Algorithm <==

  SCF Algorithm Type is DF.
  DIIS enabled.
  MOM disabled.
  Fractional occupation disabled.
  Guess Type is GWH.
  Energy threshold   = 1.00e-08
  Density threshold  = 1.00e-08
  Integral threshold = 0.00e+00

  ==> Primary Basis <==

  Basis Set: AUG-CC-PVDZ
    Blend: AUG-CC-PVDZ
    Number of shells: 38
    Number of basis function: 96
    Number of Cartesian functions: 104
    Spherical Harmonics?: true
    Max angular momentum: 2

   => Loading Basis Set <=

    Name: (AUG-CC-PVDZ AUX)
    Role: JKFIT
    Keyword: DF_BASIS_SCF
    atoms 1 entry AR         line   854 file /home/touko/psi4conda/share/psi4/basis/aug-cc-pvdz-jkfit.gbs 
    atoms 2 entry C          line   154 file /home/touko/psi4conda/share/psi4/basis/aug-cc-pvdz-jkfit.gbs 
    atoms 3 entry N          line   212 file /home/touko/psi4conda/share/psi4/basis/aug-cc-pvdz-jkfit.gbs 
    atoms 4 entry O          line   270 file /home/touko/psi4conda/share/psi4/basis/aug-cc-pvdz-jkfit.gbs 

  ==> Pre-Iterations <==

   -------------------------------------------------------
    Irrep   Nso     Nmo     Nalpha   Nbeta   Ndocc  Nsocc
   -------------------------------------------------------
     A         96      96       0       0       0       0
   -------------------------------------------------------
    Total      96      96      11      10      10       1
   -------------------------------------------------------

  ==> Integral Setup <==

  ==> DiskDFJK: Density-Fitted J/K Matrices <==

    J tasked:                  Yes
    K tasked:                  Yes
    wK tasked:                  No
    OpenMP threads:              1
    Integrals threads:           1
    Memory (MB):               375
    Algorithm:                Core
    Integral Cache:           LOAD
    Schwarz Cutoff:          1E-12
    Fitting Condition:       1E-12

   => Auxiliary Basis Set <=

  Basis Set: (AUG-CC-PVDZ AUX)
    Blend: AUG-CC-PVDZ-JKFIT
    Number of shells: 124
    Number of basis function: 386
    Number of Cartesian functions: 453
    Spherical Harmonics?: true
    Max angular momentum: 3

  Minimum eigenvalue in the overlap matrix is 6.8821387480E-04.
  Using Symmetric Orthogonalization.

  SCF Guess: Generalized Wolfsberg-Helmholtz.

  ==> Iterations <==

                           Total Energy        Delta E     RMS |[F,P]|

   @DF-UHF iter   1:  -156.54836877130589   -1.56548e+02   2.05740e-01 
   @DF-UHF iter   2:  -163.35020826700594   -6.80184e+00   2.86446e-02 DIIS
   @DF-UHF iter   3:  -158.18528320095822    5.16493e+00   3.42062e-02 DIIS
   @DF-UHF iter   4:  -166.49884386644885   -8.31356e+00   1.04524e-02 DIIS
   @DF-UHF iter   5:  -167.06736625018158   -5.68522e-01   1.94858e-03 DIIS
   @DF-UHF iter   6:  -167.11247681696605   -4.51106e-02   1.15345e-03 DIIS
   @DF-UHF iter   7:  -167.12743094602044   -1.49541e-02   1.06302e-03 DIIS
   @DF-UHF iter   8:  -167.14274289962930   -1.53120e-02   6.12343e-04 DIIS
   @DF-UHF iter   9:  -167.15085696999813   -8.11407e-03   2.37094e-04 DIIS
   @DF-UHF iter  10:  -167.15184254079654   -9.85571e-04   2.21388e-04 DIIS
   @DF-UHF iter  11:  -167.15316807469665   -1.32553e-03   1.15798e-04 DIIS
   @DF-UHF iter  12:  -167.15334398238267   -1.75908e-04   9.46237e-05 DIIS
   @DF-UHF iter  13:  -167.15357800419736   -2.34022e-04   2.39927e-05 DIIS
   @DF-UHF iter  14:  -167.15359447227118   -1.64681e-05   1.54326e-05 DIIS
   @DF-UHF iter  15:  -167.15359992886229   -5.45659e-06   3.35998e-06 DIIS
   @DF-UHF iter  16:  -167.15360027193165   -3.43069e-07   1.27972e-06 DIIS
   @DF-UHF iter  17:  -167.15360031441858   -4.24869e-08   8.54423e-07 DIIS
   @DF-UHF iter  18:  -167.15360034390562   -2.94870e-08   5.94477e-07 DIIS
   @DF-UHF iter  19:  -167.15360036479888   -2.08933e-08   2.37393e-07 DIIS
   @DF-UHF iter  20:  -167.15360036855677   -3.75789e-09   9.93548e-08 DIIS
   @DF-UHF iter  21:  -167.15360036881989   -2.63128e-10   2.12251e-08 DIIS
   @DF-UHF iter  22:  -167.15360036882936   -9.46443e-12   6.29903e-09 DIIS

  ==> Post-Iterations <==

   @Spin Contamination Metric:   9.204163487E-02
   @S^2 Expected:                7.500000000E-01
   @S^2 Observed:                8.420416349E-01
   @S   Expected:                5.000000000E-01
   @S   Observed:                5.000000000E-01

    Orbital Energies [Eh]
    ---------------------

    Alpha Occupied:                                                       

       1A    -20.707910     2A    -15.662929     3A    -11.424884  
       4A     -1.542451     5A     -1.296016     6A     -0.809495  
       7A     -0.728366     8A     -0.696265     9A     -0.647509  
      10A     -0.553746    11A     -0.495249  

    Alpha Virtual:                                                        

      12A      0.053597    13A      0.077920    14A      0.082393  
      15A      0.086054    16A      0.111428    17A      0.134895  
      18A      0.137233    19A      0.184864    20A      0.198490  
      21A      0.211401    22A      0.213176    23A      0.219524  
      24A      0.233187    25A      0.254736    26A      0.282097  
      27A      0.291745    28A      0.341069    29A      0.345287  
      30A      0.402114    31A      0.402123    32A      0.486072  
      33A      0.562675    34A      0.584499    35A      0.585311  
      36A      0.641612    37A      0.677261    38A      0.692314  
      39A      0.731512    40A      0.731827    41A      0.735195  
      42A      0.739986    43A      0.745278    44A      0.752423  
      45A      0.796483    46A      0.804134    47A      0.817571  
      48A      0.817730    49A      0.902366    50A      0.955039  
      51A      0.975711    52A      0.987159    53A      1.099268  
      54A      1.099447    55A      1.104542    56A      1.197432  
      57A      1.216900    58A      1.346160    59A      1.504564  
      60A      1.544553    61A      1.574026    62A      1.598301  
      63A      1.598381    64A      1.702124    65A      1.710212  
      66A      1.733223    67A      2.037709    68A      2.087310  
      69A      2.107853    70A      2.355113    71A      2.465142  
      72A      2.465611    73A      2.481899    74A      2.492576  
      75A      2.494353    76A      2.595738    77A      2.826575  
      78A      2.870450    79A      2.900323    80A      3.118693  
      81A      3.118694    82A      3.164058    83A      3.164738  
      84A      3.261741    85A      3.289105    86A      3.539109  
      87A      3.539251    88A      3.613332    89A      3.737662  
      90A      3.762943    91A      4.103401    92A      9.257269  
      93A     27.743939    94A     27.743971    95A     27.916862  
      96A    176.927446  

    Beta Occupied:                                                        

       1A    -20.687022     2A    -15.636126     3A    -11.434989  
       4A     -1.497396     5A     -1.202541     6A     -0.784283  
       7A     -0.690120     8A     -0.603029     9A     -0.597413  
      10A     -0.450294  

    Beta Virtual:                                                         

      11A     -0.022456    12A      0.054115    13A      0.078234  
      14A      0.086166    15A      0.086508    16A      0.111947  
[...]
*** tstop() called on Touko at Sat Jan  5 23:30:57 2019
Module time:
	user time   =       0.77 seconds =       0.01 minutes
	system time =       0.00 seconds =       0.00 minutes
	total time  =          1 seconds =       0.02 minutes
Total time:
	user time   =     138.72 seconds =       2.31 minutes
	system time =       6.44 seconds =       0.11 minutes
	total time  =        147 seconds =       2.45 minutes

  //>>>>>>>>>>>>>>>>>>>>>>>>>>>>>>>>>>>//
  //            Monomer B HF           //
  //<<<<<<<<<<<<<<<<<<<<<<<<<<<<<<<<<<<//


*** tstart() called on Touko
*** at Sat Jan  5 23:30:57 2019

   => Loading Basis Set <=

    Name: AUG-CC-PVDZ
    Role: ORBITAL
    Keyword: BASIS
    atoms 1 entry AR         line   830 file /home/touko/psi4conda/share/psi4/basis/aug-cc-pvdz.gbs 
    atoms 2 entry C          line   178 file /home/touko/psi4conda/share/psi4/basis/aug-cc-pvdz.gbs 
    atoms 3 entry N          line   214 file /home/touko/psi4conda/share/psi4/basis/aug-cc-pvdz.gbs 
    atoms 4 entry O          line   250 file /home/touko/psi4conda/share/psi4/basis/aug-cc-pvdz.gbs 


         ---------------------------------------------------------
                                   SCF
            by Justin Turney, Rob Parrish, Andy Simmonett
                             and Daniel Smith
                              UHF Reference
                        1 Threads,    500 MiB Core
         ---------------------------------------------------------

  ==> Geometry <==

    Molecular point group: c1
    Full point group: C_inf_v

    Geometry (in Angstrom), charge = 0, multiplicity = 2:

       Center              X                  Y                   Z               Mass       
    ------------   -----------------  -----------------  -----------------  -----------------
      Gh(AR)          0.000000000000     0.000000000000     6.963102000000    39.962383122510
         C            0.000000000000     0.000000000000     0.000000000000    12.000000000000
         N            0.000000000000     0.000000000000     1.231991000000    14.003074004780
         O            0.000000000000     0.000000000000    -1.175455000000    15.994914619560

  Running in c1 symmetry.

  Rotational constants: A = ************  B =      0.00851  C =      0.00851 [cm^-1]
  Rotational constants: A = ************  B =    255.12316  C =    255.12316 [MHz]
  Nuclear repulsion =   51.958626714411572

  Charge       = 0
  Multiplicity = 2
  Electrons    = 21
  Nalpha       = 11
  Nbeta        = 10

  ==> Algorithm <==

  SCF Algorithm Type is DF.
  DIIS enabled.
  MOM disabled.
  Fractional occupation disabled.
  Guess Type is GWH.
  Energy threshold   = 1.00e-08
  Density threshold  = 1.00e-08
  Integral threshold = 0.00e+00

  ==> Primary Basis <==

  Basis Set: AUG-CC-PVDZ
    Blend: AUG-CC-PVDZ
    Number of shells: 38
    Number of basis function: 96
    Number of Cartesian functions: 104
    Spherical Harmonics?: true
    Max angular momentum: 2

   => Loading Basis Set <=

    Name: (AUG-CC-PVDZ AUX)
    Role: JKFIT
    Keyword: DF_BASIS_SCF
    atoms 1 entry AR         line   854 file /home/touko/psi4conda/share/psi4/basis/aug-cc-pvdz-jkfit.gbs 
    atoms 2 entry C          line   154 file /home/touko/psi4conda/share/psi4/basis/aug-cc-pvdz-jkfit.gbs 
    atoms 3 entry N          line   212 file /home/touko/psi4conda/share/psi4/basis/aug-cc-pvdz-jkfit.gbs 
    atoms 4 entry O          line   270 file /home/touko/psi4conda/share/psi4/basis/aug-cc-pvdz-jkfit.gbs 

  ==> Pre-Iterations <==

   -------------------------------------------------------
    Irrep   Nso     Nmo     Nalpha   Nbeta   Ndocc  Nsocc
   -------------------------------------------------------
     A         96      96       0       0       0       0
   -------------------------------------------------------
    Total      96      96      11      10      10       1
   -------------------------------------------------------

  ==> Integral Setup <==

  ==> DiskDFJK: Density-Fitted J/K Matrices <==

    J tasked:                  Yes
    K tasked:                  Yes
    wK tasked:                  No
    OpenMP threads:              1
    Integrals threads:           1
    Memory (MB):               375
    Algorithm:                Core
    Integral Cache:           LOAD
    Schwarz Cutoff:          1E-12
    Fitting Condition:       1E-12

   => Auxiliary Basis Set <=

  Basis Set: (AUG-CC-PVDZ AUX)
    Blend: AUG-CC-PVDZ-JKFIT
    Number of shells: 124
    Number of basis function: 386
    Number of Cartesian functions: 453
    Spherical Harmonics?: true
    Max angular momentum: 3

  Minimum eigenvalue in the overlap matrix is 6.9757137380E-04.
  Using Symmetric Orthogonalization.

  SCF Guess: Generalized Wolfsberg-Helmholtz.

  ==> Iterations <==

                           Total Energy        Delta E     RMS |[F,P]|

   @DF-UHF iter   1:  -156.56679922244294   -1.56567e+02   1.96298e-01 
   @DF-UHF iter   2:  -162.75795772992552   -6.19116e+00   3.07152e-02 DIIS
   @DF-UHF iter   3:  -157.31494868724982    5.44301e+00   3.63172e-02 DIIS
   @DF-UHF iter   4:  -166.47100614955346   -9.15606e+00   1.06612e-02 DIIS
   @DF-UHF iter   5:  -167.06361367827100   -5.92608e-01   1.98241e-03 DIIS
   @DF-UHF iter   6:  -167.11036586597996   -4.67522e-02   1.22959e-03 DIIS
   @DF-UHF iter   7:  -167.12561624063119   -1.52504e-02   1.10758e-03 DIIS
   @DF-UHF iter   8:  -167.14226537917412   -1.66491e-02   6.07938e-04 DIIS
   @DF-UHF iter   9:  -167.15036348576319   -8.09811e-03   2.52643e-04 DIIS
   @DF-UHF iter  10:  -167.15154306653028   -1.17958e-03   2.39029e-04 DIIS
   @DF-UHF iter  11:  -167.15294556961695   -1.40250e-03   1.26067e-04 DIIS
   @DF-UHF iter  12:  -167.15313826458805   -1.92695e-04   1.00347e-04 DIIS
   @DF-UHF iter  13:  -167.15340533834592   -2.67074e-04   2.66882e-05 DIIS
   @DF-UHF iter  14:  -167.15342541420858   -2.00759e-05   1.77199e-05 DIIS
   @DF-UHF iter  15:  -167.15343284583659   -7.43163e-06   3.63694e-06 DIIS
   @DF-UHF iter  16:  -167.15343333644259   -4.90606e-07   1.55317e-06 DIIS
   @DF-UHF iter  17:  -167.15343340194656   -6.55040e-08   1.06303e-06 DIIS
   @DF-UHF iter  18:  -167.15343345008239   -4.81358e-08   7.40193e-07 DIIS
   @DF-UHF iter  19:  -167.15343348399651   -3.39141e-08   2.47505e-07 DIIS
   @DF-UHF iter  20:  -167.15343348768934   -3.69283e-09   9.25257e-08 DIIS
   @DF-UHF iter  21:  -167.15343348793354   -2.44199e-10   2.06113e-08 DIIS
   @DF-UHF iter  22:  -167.15343348794025   -6.70752e-12   7.25301e-09 DIIS

  ==> Post-Iterations <==

   @Spin Contamination Metric:   9.201058742E-02
   @S^2 Expected:                7.500000000E-01
   @S^2 Observed:                8.420105874E-01
   @S   Expected:                5.000000000E-01
   @S   Observed:                5.000000000E-01

    Orbital Energies [Eh]
    ---------------------

    Alpha Occupied:                                                       

       1A    -20.707866     2A    -15.662992     3A    -11.424993  
       4A     -1.542459     5A     -1.296061     6A     -0.809529  
       7A     -0.728394     8A     -0.696297     9A     -0.647504  
      10A     -0.553797    11A     -0.495298  

    Alpha Virtual:                                                        

      12A      0.054696    13A      0.080013    14A      0.085868  
      15A      0.089979    16A      0.101246    17A      0.125890  
      18A      0.126130    19A      0.131735    20A      0.178304  
      21A      0.185180    22A      0.203850    23A      0.208316  
      24A      0.216856    25A      0.249044    26A      0.262956  
      27A      0.277801    28A      0.287201    29A      0.346497  
      30A      0.402133    31A      0.402134    32A      0.489106  
      33A      0.517954    34A      0.575547    35A      0.575796  
      36A      0.591287    37A      0.659673    38A      0.674905  
      39A      0.681257    40A      0.722881    41A      0.725105  
      42A      0.727415    43A      0.753865    44A      0.756614  
      45A      0.799897    46A      0.799897    47A      0.800511  
      48A      0.800570    49A      0.818257    50A      0.876902  
      51A      0.882982    52A      0.899458    53A      1.023905  
      54A      1.098592    55A      1.098899    56A      1.194336  
      57A      1.213421    58A      1.230664    59A      1.477035  
      60A      1.535519    61A      1.565111    62A      1.597283  
      63A      1.598194    64A      1.612676    65A      1.695652  
      66A      1.719204    67A      1.903191    68A      2.076406  
      69A      2.097313    70A      2.314954    71A      2.424617  
      72A      2.441859    73A      2.441876    74A      2.463633  
      75A      2.491913    76A      2.492858    77A      2.764507  
      78A      2.864054    79A      2.894164    80A      3.107384  
      81A      3.107384    82A      3.107656    83A      3.107667  
      84A      3.113589    85A      3.252152    86A      3.455633  
      87A      3.539113    88A      3.539191    89A      3.737185  
      90A      3.762467    91A      4.099994    92A      9.184597  
      93A     27.720260    94A     27.720261    95A     27.740675  
      96A    176.807339  

    Beta Occupied:                                                        

       1A    -20.686978     2A    -15.636186     3A    -11.435097  
       4A     -1.497420     5A     -1.202568     6A     -0.784321  
       7A     -0.690150     8A     -0.603028     9A     -0.597440  
      10A     -0.450344  

    Beta Virtual:                                                         

      11A     -0.022489    12A      0.055191    13A      0.080383  
      14A      0.090205    15A      0.090630    16A      0.101621  
      17A      0.126071    18A      0.126245    19A      0.131916  
      20A      0.179785    21A      0.195042    22A      0.208417  
      23A      0.218471    24A      0.247025    25A      0.251504  
      26A      0.263292    27A      0.293191    28A      0.345901  
      29A      0.351101    30A      0.401137    31A      0.401366  
      32A      0.492223    33A      0.518382    34A      0.575830  
      35A      0.575962    36A      0.591763    37A      0.677790  
      38A      0.685706    39A      0.686348    40A      0.718368  
      41A      0.720559    42A      0.734928    43A      0.777204  
      44A      0.777543    45A      0.799897    46A      0.799897  
      47A      0.800508    48A      0.800543    49A      0.819106  
      50A      0.880489    51A      0.900930    52A      0.908408  
      53A      1.036350    54A      1.110868    55A      1.111157  
      56A      1.219239    57A      1.238782    58A      1.239222  
      59A      1.488111    60A      1.578969    61A      1.581382  
      62A      1.581464    63A      1.594829    64A      1.622307  
      65A      1.725573    66A      1.756768    67A      1.903323  
      68A      2.099120    69A      2.101786    70A      2.333431  
      71A      2.433815    72A      2.441864    73A      2.441877  
      74A      2.464719    75A      2.562592    76A      2.563039  
      77A      2.775293    78A      2.905651    79A      2.908988  
      80A      3.107384    81A      3.107384    82A      3.107661  
      83A      3.107669    84A      3.113640    85A      3.271511  
      86A      3.465389    87A      3.583882    88A      3.584139  
      89A      3.769730    90A      3.777580    91A      4.117911  
      92A      9.184598    93A     27.720260    94A     27.720261  
      95A     27.740675    96A    176.807339  

    Final Occupation by Irrep:
              A 
    DOCC [    10 ]
    SOCC [     1 ]

  Energy converged.

  @DF-UHF Final Energy:  -167.15343348794025

   => Energetics <=

    Nuclear Repulsion Energy =             51.9586267144115723
    One-Electron Energy =                -330.0753978266128570
    Two-Electron Energy =                 110.9633376242610296
    Total Energy =                       -167.1534334879402195


  UHF NO Occupations:
  HONO-2 :    9  A 1.9949111
  HONO-1 :   10  A 1.9613456
  HONO-0 :   11  A 1.0000000
  LUNO+0 :   12  A 0.0386544
  LUNO+1 :   13  A 0.0050889
  LUNO+2 :   14  A 0.0017887
  LUNO+3 :   15  A 0.0006455



Properties will be evaluated at   0.000000,   0.000000,   0.000000 [a0]

Properties computed using the SCF density matrix

  Nuclear Dipole Moment: [e a0]
     X:     0.0000      Y:     0.0000      Z:    -1.4734

  Electronic Dipole Moment: [e a0]
     X:    -0.0000      Y:    -0.0000      Z:     1.1750

  Dipole Moment: [e a0]
     X:    -0.0000      Y:    -0.0000      Z:    -0.2984     Total:     0.2984

  Dipole Moment: [D]
     X:    -0.0000      Y:    -0.0000      Z:    -0.7585     Total:     0.7585


*** tstop() called on Touko at Sat Jan  5 23:30:58 2019
Module time:
	user time   =       1.28 seconds =       0.02 minutes
	system time =       0.04 seconds =       0.00 minutes
	total time  =          1 seconds =       0.02 minutes
Total time:
	user time   =     140.02 seconds =       2.33 minutes
	system time =       6.48 seconds =       0.11 minutes
	total time  =        148 seconds =       2.47 minutes
  Constructing Basis Sets for SAPT...

   => Loading Basis Set <=

    Name: (AUG-CC-PVDZ AUX)
    Role: RIFIT
    Keyword: DF_BASIS_SAPT
    atoms 1 entry AR         line   632 file /home/touko/psi4conda/share/psi4/basis/aug-cc-pvdz-ri.gbs 
    atoms 2 entry C          line   112 file /home/touko/psi4conda/share/psi4/basis/aug-cc-pvdz-ri.gbs 
    atoms 3 entry N          line   158 file /home/touko/psi4conda/share/psi4/basis/aug-cc-pvdz-ri.gbs 
    atoms 4 entry O          line   204 file /home/touko/psi4conda/share/psi4/basis/aug-cc-pvdz-ri.gbs 


  //>>>>>>>>>>>>>>>>>>>>>>>>>>>>>>>>>>>//
  //               SAPT0               //
  //<<<<<<<<<<<<<<<<<<<<<<<<<<<<<<<<<<<//


*** tstart() called on Touko
*** at Sat Jan  5 23:30:58 2019

	 --------------------------------------------------------
	                         SAPT                      
	               Rob Parrish and Ed Hohenstein             
	                Open-shell: Jérôme Gonthier              
	 --------------------------------------------------------

  ==> Sizes <==

   => Resources <=

    Memory (MB):               450

   => Orbital Ranges <=

    ------------------
    Range    M_A   M_B
    ------------------
    natom      1     3
    nso       96    96
    ------------------
      Alpha orbitals  
    ------------------
    nmo       96    96
    nocc       9    11
    nvir      87    85
    nfocc      0     0
    naocc      9    11
    navir     87    85
    nfvir      0     0
    ------------------
      Beta orbitals  
    ------------------
    nmo       96    96
    nocc       9    10
    nvir      87    86
    nfocc      0     0
    naocc      9    10
    navir     87    86
    nfvir      0     0
    ------------------

   => Primary Basis Set <=

  Basis Set: AUG-CC-PVDZ
    Blend: AUG-CC-PVDZ
    Number of shells: 38
    Number of basis function: 96
    Number of Cartesian functions: 104
    Spherical Harmonics?: true
    Max angular momentum: 2

  SCF TERMS:

  ==> DiskDFJK: Density-Fitted J/K Matrices <==

    J tasked:                  Yes
    K tasked:                  Yes
    wK tasked:                  No
    OpenMP threads:              1
    Integrals threads:           1
    Memory (MB):               448
    Algorithm:                Core
    Integral Cache:           NONE
    Schwarz Cutoff:          1E-12
    Fitting Condition:       1E-12

   => Auxiliary Basis Set <=

  Basis Set: (AUG-CC-PVDZ AUX)
    Blend: AUG-CC-PVDZ-JKFIT
    Number of shells: 124
    Number of basis function: 386
    Number of Cartesian functions: 453
    Spherical Harmonics?: true
    Max angular momentum: 3

    Elst10,r            =     0.000000546339 H
    Exch10              =     0.000000194232 H
    Exch10(S^2)         =     0.000000194232 H

    Exch10(S^2) DM      =     0.000000194232 H

    Ind20,u (A<-B)      =    -0.000002420963 H
    Ind20,u (B<-A)      =    -0.000000027133 H
    Ind20,u             =    -0.000002448096 H
    Exch-Ind20,u (A<-B) =     0.000000018152 H
    Exch-Ind20,u (B<-A) =     0.000000020814 H
    Exch-Ind20,u        =     0.000000038966 H

  ==> CPKS Iterations <==

    Maxiter     =          50
    Convergence =   1.000E-09

    -----------------------------------------
    Iter   Monomer A    Monomer B    Time [s]
    -----------------------------------------
    1      2.876E-01    3.850E-02           0
    2      4.903E-02    2.314E-03           0
    3      6.692E-03    1.258E-03           0
    4      6.118E-04    1.361E-03           0
    5      8.650E-05    9.739E-04           0
    6      1.637E-05    3.522E-04           1
    7      8.998E-07    1.256E-04           1
    8      9.956E-08    6.732E-05           1
    9      2.247E-08    3.092E-05           1
    10     1.992E-09    8.685E-06           1
    11     1.138E-10*   4.286E-06           1
    12     1.138E-10*   2.093E-06           1
    13     1.138E-10*   4.279E-07           2
    14     1.138E-10*   1.090E-07           2
    15     1.138E-10*   5.013E-08           2
    16     1.138E-10*   1.169E-08           2
    17     1.138E-10*   2.434E-09           2
    18     1.138E-10*   4.185E-10*          2
    -----------------------------------------

    Ind20,r (A<-B)      =    -0.000002549667 H
    Ind20,r (B<-A)      =    -0.000000028290 H
    Ind20,r             =    -0.000002577957 H
    Exch-Ind20,r (A<-B) =     0.000000018552 H
    Exch-Ind20,r (B<-A) =     0.000000021806 H
    Exch-Ind20,r        =     0.000000040357 H

  PT2 TERMS:

    Disp20              =    -0.000048597518 H
    Exch-Disp20         =     0.000000022328 H


    SAPT Results 
  --------------------------------------------------------------------------------------------------------
    Electrostatics                  0.00054634 [mEh]       0.00034283 [kcal/mol]       0.00143441 [kJ/mol]
      Elst10,r                      0.00054634 [mEh]       0.00034283 [kcal/mol]       0.00143441 [kJ/mol]

    Exchange                        0.00019423 [mEh]       0.00012188 [kcal/mol]       0.00050996 [kJ/mol]
      Exch10                        0.00019423 [mEh]       0.00012188 [kcal/mol]       0.00050996 [kJ/mol]
      Exch10(S^2)                   0.00019423 [mEh]       0.00012188 [kcal/mol]       0.00050996 [kJ/mol]

    Induction                      -0.00254252 [mEh]      -0.00159546 [kcal/mol]      -0.00667539 [kJ/mol]
      Ind20,r                      -0.00257796 [mEh]      -0.00161769 [kcal/mol]      -0.00676843 [kJ/mol]
      Exch-Ind20,r                  0.00004036 [mEh]       0.00002532 [kcal/mol]       0.00010596 [kJ/mol]
      delta HF,r (2)               -0.00000492 [mEh]      -0.00000309 [kcal/mol]      -0.00001292 [kJ/mol]

    Dispersion                     -0.04857519 [mEh]      -0.03048139 [kcal/mol]      -0.12753416 [kJ/mol]
      Disp20                       -0.04859752 [mEh]      -0.03049540 [kcal/mol]      -0.12759278 [kJ/mol]
      Exch-Disp20                   0.00002233 [mEh]       0.00001401 [kcal/mol]       0.00005862 [kJ/mol]

  Total HF                         -0.00180195 [mEh]      -0.00113074 [kcal/mol]      -0.00473102 [kJ/mol]
  Total SAPT0                      -0.05037714 [mEh]      -0.03161213 [kcal/mol]      -0.13226518 [kJ/mol]
  --------------------------------------------------------------------------------------------------------

*** tstop() called on Touko at Sat Jan  5 23:31:03 2019
Module time:
	user time   =       4.12 seconds =       0.07 minutes
	system time =       0.24 seconds =       0.00 minutes
	total time  =          5 seconds =       0.08 minutes
Total time:
	user time   =     144.20 seconds =       2.40 minutes
	system time =       6.72 seconds =       0.11 minutes
	total time  =        153 seconds =       2.55 minutes

    Psi4 stopped on: Saturday, 05 January 2019 11:31PM
    Psi4 wall time for execution: 0:02:33.03

*** Psi4 exiting successfully. Buy a developer a beer!
