
    -----------------------------------------------------------------------
          Psi4: An Open-Source Ab Initio Electronic Structure Package
                               Psi4 1.2 release

                         Git: Rev {HEAD} 9d4a61c 


    R. M. Parrish, L. A. Burns, D. G. A. Smith, A. C. Simmonett,
    A. E. DePrince III, E. G. Hohenstein, U. Bozkaya, A. Yu. Sokolov,
    R. Di Remigio, R. M. Richard, J. F. Gonthier, A. M. James,
    H. R. McAlexander, A. Kumar, M. Saitow, X. Wang, B. P. Pritchard,
    P. Verma, H. F. Schaefer III, K. Patkowski, R. A. King, E. F. Valeev,
    F. A. Evangelista, J. M. Turney, T. D. Crawford, and C. D. Sherrill,
    J. Chem. Theory Comput. 13(7) pp 3185--3197 (2017).
    (doi: 10.1021/acs.jctc.7b00174)


                         Additional Contributions by
    P. Kraus, H. Kruse, M. H. Lechner, M. C. Schieber, and R. A. Shaw

    -----------------------------------------------------------------------


    Psi4 started on: Sunday, 25 November 2018 06:12AM

    Process ID: 7679
    Host:       linux-en55
    PSIDATADIR: /home/yuant/psi4conda/share/psi4
    Memory:     500.0 MiB
    Threads:    1
    
  ==> Input File <==

--------------------------------------------------------------------------
memory 2 GB

molecule {
  0 2
  C 0.0 0.0 0.0
  N 0.0 0.0 1.22
  O 0.0 0.0 -1.15
}

set {
  basis = def2-TZVP
  reference = UKS
}
optimize('PWPB95-D3BJ')--------------------------------------------------------------------------

  Memory set to   1.863 GiB by Python driver.
gradient() will perform gradient computation by finite difference of analytic energies.

-------------------------------------------------------------

  Using finite-differences of energies to determine gradients (fd_geoms_1_0).
	Generating geometries for use with 3-point formula.
	Displacement size will be 5.00e-03.
	Number of atoms is 3.
	Number of symmetric SALC's is 2.
	Number of displacements (including reference) is 5.
	Translations projected? 1. Rotations projected? 1.

-------------------------------------------------------------

  //>>>>>>>>>>>>>>>>>>>>>>>>>>>>>>>>>>>//
  //    Loading displacement 1 of 5    //
  //<<<<<<<<<<<<<<<<<<<<<<<<<<<<<<<<<<<//

*** tstart() called on linux-en55
*** at Sun Nov 25 06:12:24 2018

   => Loading Basis Set <=

    Name: DEF2-TZVP
    Role: ORBITAL
    Keyword: BASIS
    atoms 1 entry C          line   123 file /home/yuant/psi4conda/share/psi4/basis/def2-tzvp.gbs 
    atoms 2 entry N          line   156 file /home/yuant/psi4conda/share/psi4/basis/def2-tzvp.gbs 
    atoms 3 entry O          line   189 file /home/yuant/psi4conda/share/psi4/basis/def2-tzvp.gbs 


         ---------------------------------------------------------
                                   SCF
            by Justin Turney, Rob Parrish, Andy Simmonett
                             and Daniel Smith
                              UKS Reference
                        1 Threads,   1907 MiB Core
         ---------------------------------------------------------

  ==> Geometry <==

    Molecular point group: c2v
    Full point group: C_inf_v

    Geometry (in Angstrom), charge = 0, multiplicity = 2:

       Center              X                  Y                   Z               Mass       
    ------------   -----------------  -----------------  -----------------  -----------------
         C            0.000000000000     0.000000000000     0.030556006675    12.000000000000
         N            0.000000000000     0.000000000000     1.251459757465    14.003074004780
         O            0.000000000000     0.000000000000    -1.118540242535    15.994914619560

  Running in c2v symmetry.

  Rotational constants: A = ************  B =      0.40181  C =      0.40181 [cm^-1]
  Rotational constants: A = ************  B =  12046.05726  C =  12046.05726 [MHz]
  Nuclear repulsion =   52.812624097442878

  Charge       = 0
  Multiplicity = 2
  Electrons    = 21
  Nalpha       = 11
  Nbeta        = 10

  ==> Algorithm <==

  SCF Algorithm Type is DF.
  DIIS enabled.
  MOM disabled.
  Fractional occupation disabled.
  Guess Type is GWH.
  Energy threshold   = 1.00e-08
  Density threshold  = 1.00e-08
  Integral threshold = 0.00e+00

  ==> Primary Basis <==

  Basis Set: DEF2-TZVP
    Blend: DEF2-TZVP
    Number of shells: 33
    Number of basis function: 93
    Number of Cartesian functions: 108
    Spherical Harmonics?: true
    Max angular momentum: 3

  ==> DFT Potential <==

   => Composite Functional: PWPB95-D3BJ <= 

    PWPB95 SOS Double Hybrid XC Functional

    L. Goerigk, S.Grimme, J.Chem. Theory Compt. 7, 291-309, 2011 


    Deriv               =              1
    GGA                 =           TRUE
    Meta                =           TRUE

    Exchange Hybrid     =           TRUE
    MP2 Hybrid          =           TRUE

   => Exchange Functionals <=

    0.5000    XC_GGA_X_PW91

   => Exact (HF) Exchange <=

    0.5000               HF 

   => Correlation Functionals <=

    0.7310   XC_MGGA_C_BC95

   => MP2 Correlation <=

    MP2 SCS Hybrid      =           TRUE
    MP2 OS Alpha        =       0.269000
    MP2 SS Alpha        =       0.000000

   => Molecular Quadrature <=

    Radial Scheme       =       TREUTLER
    Pruning Scheme      =           FLAT
    Nuclear Scheme      =       TREUTLER

    BS radius alpha     =              1
    Pruning alpha       =              1
    Radial Points       =             75
    Spherical Points    =            302
    Total Points        =          65923
    Total Blocks        =            568
    Max Points          =            256
    Max Functions       =             92

   => -D3BJ: Empirical Dispersion <=

    Grimme's -D3 (BJ-damping) Dispersion Correction
    Grimme S.; Ehrlich S.; Goerigk L. (2011), J. Comput. Chem., 32: 1456
    Parametrisation from: 
    L. Goerigk, S. Grimme, Phys. Chem. Chem. Phys. 13, 6670-6688, 2011


        S6 =   8.200000E-01
        S8 =   2.904000E-01
        A1 =   0.000000E+00
        A2 =   7.314100E+00

   => Loading Basis Set <=

    Name: (DEF2-TZVP AUX)
    Role: JKFIT
    Keyword: DF_BASIS_SCF
    atoms 1 entry C          line   203 file /home/yuant/psi4conda/share/psi4/basis/def2-tzvp-jkfit.gbs 
    atoms 2 entry N          line   263 file /home/yuant/psi4conda/share/psi4/basis/def2-tzvp-jkfit.gbs 
    atoms 3 entry O          line   323 file /home/yuant/psi4conda/share/psi4/basis/def2-tzvp-jkfit.gbs 

  ==> Pre-Iterations <==

   -------------------------------------------------------
    Irrep   Nso     Nmo     Nalpha   Nbeta   Ndocc  Nsocc
   -------------------------------------------------------
     A1        42      42       0       0       0       0
     A2         9       9       0       0       0       0
     B1        21      21       0       0       0       0
     B2        21      21       0       0       0       0
   -------------------------------------------------------
    Total      93      93      11      10      10       1
   -------------------------------------------------------

  ==> Integral Setup <==

  ==> MemDFJK: Density-Fitted J/K Matrices <==

    J tasked:                   Yes
    K tasked:                   Yes
    wK tasked:                   No
    OpenMP threads:               1
    Memory (MB):               1430
    Algorithm:                 Core
    Schwarz Cutoff:           1E-12
    Mask sparsity (%):       0.5319
    Fitting Condition:        1E-12

   => Auxiliary Basis Set <=

  Basis Set: (DEF2-TZVP AUX)
    Blend: DEF2-TZVP-JKFIT
    Number of shells: 75
    Number of basis function: 229
    Number of Cartesian functions: 275
    Spherical Harmonics?: true
    Max angular momentum: 4

  Minimum eigenvalue in the overlap matrix is 2.5120688393E-04.
  Using Symmetric Orthogonalization.

  SCF Guess: Generalized Wolfsberg-Helmholtz.

  ==> Iterations <==

                           Total Energy        Delta E     RMS |[F,P]|

    Occupation by irrep:
             A1    A2    B1    B2 
    DOCC [     7,    0,    2,    1 ]
    SOCC [     0,    0,    0,    1 ]

   @DF-UKS iter   1:  -155.86756191610681   -1.55868e+02   3.45190e-01 
    Occupation by irrep:
             A1    A2    B1    B2 
    DOCC [     6,    0,    2,    2 ]
    SOCC [     1,    0,    0,    0 ]

   @DF-UKS iter   2:  -155.44961790884901    4.17944e-01   7.20896e-02 DIIS
   @DF-UKS iter   3:  -144.16764106979099    1.12820e+01   1.24823e-01 DIIS
    Occupation by irrep:
             A1    A2    B1    B2 
    DOCC [     7,    0,    2,    1 ]
    SOCC [     0,    0,    0,    1 ]

   @DF-UKS iter   4:  -160.23784308150954   -1.60702e+01   6.76655e-02 DIIS
   @DF-UKS iter   5:  -167.04877134644732   -6.81093e+00   2.70493e-02 DIIS
   @DF-UKS iter   6:  -167.34991135916891   -3.01140e-01   1.94705e-02 DIIS
   @DF-UKS iter   7:  -167.81135536775724   -4.61444e-01   3.33642e-03 DIIS
   @DF-UKS iter   8:  -167.82877347066534   -1.74181e-02   2.10175e-03 DIIS
   @DF-UKS iter   9:  -167.83386501085175   -5.09154e-03   7.53640e-04 DIIS
   @DF-UKS iter  10:  -167.83495439014047   -1.08938e-03   3.24958e-04 DIIS
   @DF-UKS iter  11:  -167.83533301155217   -3.78621e-04   1.21160e-04 DIIS
   @DF-UKS iter  12:  -167.83540781621065   -7.48047e-05   4.40628e-05 DIIS
   @DF-UKS iter  13:  -167.83542190916444   -1.40930e-05   1.76713e-05 DIIS
   @DF-UKS iter  14:  -167.83542302239670   -1.11323e-06   3.51448e-06 DIIS
   @DF-UKS iter  15:  -167.83542308786986   -6.54732e-08   8.06969e-07 DIIS
   @DF-UKS iter  16:  -167.83542309117757   -3.30772e-09   1.88610e-07 DIIS
   @DF-UKS iter  17:  -167.83542309141251   -2.34934e-10   8.48245e-08 DIIS
   @DF-UKS iter  18:  -167.83542309147415   -6.16467e-11   3.55876e-08 DIIS
   @DF-UKS iter  19:  -167.83542309148584   -1.16813e-11   1.53963e-08 DIIS
   @DF-UKS iter  20:  -167.83542309148686   -1.02318e-12   3.42255e-09 DIIS

  ==> Post-Iterations <==

   @Spin Contamination Metric:   2.240557806E-02
   @S^2 Expected:                7.500000000E-01
   @S^2 Observed:                7.724055781E-01
   @S   Expected:                5.000000000E-01
   @S   Observed:                5.000000000E-01

    Orbital Energies [Eh]
    ---------------------

    Alpha Occupied:                                                       

       1A1   -19.786079     2A1   -14.865301     3A1   -10.731379  
       4A1    -1.311881     5A1    -1.087172     6A1    -0.660101  
       1B2    -0.607285     1B1    -0.584742     7A1    -0.518719  
       2B2    -0.435859     2B1    -0.393529  

    Alpha Virtual:                                                        

       8A1     0.073205     3B2     0.081209     3B1     0.101604  
       9A1     0.196468     4B2     0.224032     4B1     0.230817  
      10A1     0.350314    11A1     0.376707     5B2     0.418608  
       5B1     0.433312    12A1     0.440478     6B2     0.593714  
       6B1     0.604509    13A1     0.629983     1A2     0.630935  
      14A1     0.644135    15A1     0.842413     7B2     0.996742  
      16A1     1.013385     7B1     1.017531     2A2     1.157227  
      17A1     1.157855    18A1     1.295284    19A1     1.389163  
       8B2     1.407626     8B1     1.414645    20A1     1.624464  
       3A2     1.626916     9B2     1.627097    21A1     1.638244  
       9B1     1.649258    10B2     2.004513    10B1     2.024042  
      22A1     2.060483    23A1     2.238067    11B2     2.407503  
      11B1     2.437619    24A1     2.504483    12B2     2.647930  
      12B1     2.647931    13B2     2.805420    13B1     2.822507  
      25A1     2.866533     4A2     2.866636     5A2     2.949997  
      26A1     2.950023    27A1     3.065870    14B2     3.147454  
      14B1     3.170061    28A1     3.275174    29A1     3.585630  
      15B2     3.656395    15B1     3.673128    16B2     3.981046  
      16B1     3.981052    30A1     4.330013     6A2     4.385994  
      31A1     4.389685    32A1     4.596568     7A2     4.597857  
      33A1     4.686068    17B2     5.044255    17B1     5.074227  
      18B2     5.194726    18B1     5.194736    19B2     5.407675  
      19B1     5.434444    34A1     5.476763     8A2     5.719577  
      35A1     5.719858    36A1     5.761376     9A2     6.367167  
      37A1     6.367190    20B2     6.630885    20B1     6.649014  
      21B2     6.902646    21B1     6.922387    38A1     7.138216  
      39A1     7.360916    40A1    23.978377    41A1    32.374484  
      42A1    44.570059  

    Beta Occupied:                                                        

       1A1   -19.775088     2A1   -14.848816     3A1   -10.734322  
       4A1    -1.289924     5A1    -1.032441     6A1    -0.644853  
       1B1    -0.579119     1B2    -0.536093     7A1    -0.489347  
       2B1    -0.371102  

    Beta Virtual:                                                         

       2B2    -0.154851     8A1     0.076747     3B1     0.106727  
       3B2     0.146522     9A1     0.199970     4B2     0.225693  
       4B1     0.229706    10A1     0.355697    11A1     0.382998  
       5B1     0.439161    12A1     0.443250     5B2     0.451139  
       6B1     0.607942     6B2     0.616596     1A2     0.635979  
      13A1     0.636183    14A1     0.651358    15A1     0.848501  
       7B1     1.021548     7B2     1.026771    16A1     1.028956  
       2A2     1.191257    17A1     1.191348    18A1     1.301376  
      19A1     1.391159     8B2     1.403449     8B1     1.410223  
      20A1     1.642850     3A2     1.644971    21A1     1.645213  
       9B1     1.655279     9B2     1.658347    10B1     2.029699  
      10B2     2.034306    22A1     2.068636    23A1     2.260273  
      11B1     2.450524    11B2     2.461548    24A1     2.511963  
      12B2     2.645964    12B1     2.645978    13B1     2.824807  
      13B2     2.827934     4A2     2.876375    25A1     2.876394  
       5A2     2.944733    26A1     2.944744    27A1     3.077134  
      14B1     3.175432    14B2     3.177116    28A1     3.281534  
      29A1     3.593928    15B2     3.671400    15B1     3.675247  
      16B2     4.021837    16B1     4.023337    30A1     4.349653  
      31A1     4.420059     6A2     4.421646    32A1     4.645790  
       7A2     4.648252    33A1     4.700633    17B1     5.085552  
      17B2     5.085926    18B2     5.212529    18B1     5.212605  
      19B2     5.440191    19B1     5.442812    34A1     5.492021  
      35A1     5.732763     8A2     5.732919    36A1     5.773734  
      37A1     6.395124     9A2     6.395575    20B2     6.647392  
      20B1     6.652079    21B2     6.926095    21B1     6.927035  
      38A1     7.149168    39A1     7.367319    40A1    23.976599  
      41A1    32.390016    42A1    44.578655  

    Final Occupation by Irrep:
             A1    A2    B1    B2 
    DOCC [     7,    0,    2,    1 ]
    SOCC [     0,    0,    0,    1 ]

  Energy converged.

  @DF-UKS Final Energy:  -167.83542309148686

   => Energetics <=

    Nuclear Repulsion Energy =             52.8126240974428782
    One-Electron Energy =                -332.2853256841719372
    Two-Electron Energy =                 122.2699876029972188
    DFT Exchange-Correlation Energy =     -10.6323357177550495
    Empirical Dispersion Energy =          -0.0003733900000000
    VV10 Nonlocal Energy =                  0.0000000000000000
    Total Energy =                       -167.8354230914868594


  UHF NO Occupations:
  HONO-2 :    2 B1 1.9990680
  HONO-1 :    1 B2 1.9906474
  HONO-0 :    2 B2 1.0000000
  LUNO+0 :    3 B2 0.0093526
  LUNO+1 :    3 B1 0.0009320
  LUNO+2 :    8 A1 0.0006697
  LUNO+3 :    9 A1 0.0001343



Properties will be evaluated at   0.000000,   0.000000,   0.000000 [a0]

Properties computed using the SCF density matrix

  Nuclear Dipole Moment: [e a0]
     X:     0.0000      Y:     0.0000      Z:    -0.0090

  Electronic Dipole Moment: [e a0]
     X:     0.0000      Y:     0.0000      Z:    -0.2932

  Dipole Moment: [e a0]
     X:     0.0000      Y:     0.0000      Z:    -0.3022     Total:     0.3022

  Dipole Moment: [D]
     X:     0.0000      Y:     0.0000      Z:    -0.7681     Total:     0.7681


*** tstop() called on linux-en55 at Sun Nov 25 06:12:37 2018
Module time:
	user time   =      13.83 seconds =       0.23 minutes
	system time =       0.03 seconds =       0.00 minutes
	total time  =         13 seconds =       0.22 minutes
Total time:
	user time   =      13.83 seconds =       0.23 minutes
	system time =       0.03 seconds =       0.00 minutes
	total time  =         13 seconds =       0.22 minutes

*** tstart() called on linux-en55
*** at Sun Nov 25 06:12:37 2018

   => Loading Basis Set <=

    Name: (DEF2-TZVP AUX)
    Role: RIFIT
    Keyword: DF_BASIS_MP2
    atoms 1 entry C          line   179 file /home/yuant/psi4conda/share/psi4/basis/def2-tzvp-ri.gbs 
    atoms 2 entry N          line   226 file /home/yuant/psi4conda/share/psi4/basis/def2-tzvp-ri.gbs 
    atoms 3 entry O          line   273 file /home/yuant/psi4conda/share/psi4/basis/def2-tzvp-ri.gbs 

	 --------------------------------------------------------
	                          DF-MP2                         
	      2nd-Order Density-Fitted Moller-Plesset Theory     
	              UMP2 Wavefunction,   1 Threads             
	                                                         
	        Rob Parrish, Justin Turney, Andy Simmonett,      
	           Ed Hohenstein, and C. David Sherrill          
	 --------------------------------------------------------

	 --------------------------------------------------------
	                 NBF =    93, NAUX =   228
	 --------------------------------------------------------
	   CLASS    FOCC     OCC    AOCC    AVIR     VIR    FVIR
	   ALPHA       0      11      11      82      82       0
	    BETA       0      10      10      83      83       0
	 --------------------------------------------------------

	-----------------------------------------------------------
	 ==================> DF-MP2 Energies <==================== 
	-----------------------------------------------------------
	 Reference Energy          =    -167.8354230914868594 [Eh]
	 Singles Energy            =      -0.0000000000000263 [Eh]
	 Same-Spin Energy          =      -0.1841347863988059 [Eh]
	 Opposite-Spin Energy      =      -0.5369430682799200 [Eh]
	 Correlation Energy        =      -0.7210778546787522 [Eh]
	 Total Energy              =    -168.5565009461656132 [Eh]
	-----------------------------------------------------------
	 ================> DF-SCS-MP2 Energies <================== 
	-----------------------------------------------------------
	 SCS Same-Spin Scale       =       0.0000000000000000 [-]
	 SCS Opposite-Spin Scale   =       0.2690000000000000 [-]
	 SCS Same-Spin Energy      =      -0.0000000000000000 [Eh]
	 SCS Opposite-Spin Energy  =      -0.1444376853672985 [Eh]
	 SCS Correlation Energy    =      -0.1444376853673247 [Eh]
	 SCS Total Energy          =    -167.9798607768541956 [Eh]
	-----------------------------------------------------------



    PWPB95-D3BJ Energy Summary
    -------------------------
    DFT Reference Energy                  =  -167.8354230914868594
    Scaled MP2 Correlation                =    -0.1444376853673247
    @Final double-hybrid DFT total energy =  -167.9798607768541956


*** tstop() called on linux-en55 at Sun Nov 25 06:12:38 2018
Module time:
	user time   =       0.20 seconds =       0.00 minutes
	system time =       0.00 seconds =       0.00 minutes
	total time  =          1 seconds =       0.02 minutes
Total time:
	user time   =      14.03 seconds =       0.23 minutes
	system time =       0.03 seconds =       0.00 minutes
	total time  =         14 seconds =       0.23 minutes

  //>>>>>>>>>>>>>>>>>>>>>>>>>>>>>>>>>>>//
  //    Loading displacement 2 of 5    //
  //<<<<<<<<<<<<<<<<<<<<<<<<<<<<<<<<<<<//

*** tstart() called on linux-en55
*** at Sun Nov 25 06:12:38 2018

   => Loading Basis Set <=

    Name: DEF2-TZVP
    Role: ORBITAL
    Keyword: BASIS
    atoms 1 entry C          line   123 file /home/yuant/psi4conda/share/psi4/basis/def2-tzvp.gbs 
    atoms 2 entry N          line   156 file /home/yuant/psi4conda/share/psi4/basis/def2-tzvp.gbs 
    atoms 3 entry O          line   189 file /home/yuant/psi4conda/share/psi4/basis/def2-tzvp.gbs 


         ---------------------------------------------------------
                                   SCF
            by Justin Turney, Rob Parrish, Andy Simmonett
                             and Daniel Smith
                              UKS Reference
                        1 Threads,   1907 MiB Core
         ---------------------------------------------------------

  ==> Geometry <==

    Molecular point group: c2v
    Full point group: C_inf_v

    Geometry (in Angstrom), charge = 0, multiplicity = 2:

       Center              X                  Y                   Z               Mass       
    ------------   -----------------  -----------------  -----------------  -----------------
         C            0.000000000000     0.000000000000     0.031847054500    12.000000000000
         N            0.000000000000     0.000000000000     1.250943303709    14.003074004780
         O            0.000000000000     0.000000000000    -1.119056696291    15.994914619560

  Running in c2v symmetry.

  Rotational constants: A = ************  B =      0.40180  C =      0.40180 [cm^-1]
  Rotational constants: A = ************  B =  12045.66864  C =  12045.66864 [MHz]
  Nuclear repulsion =   52.804898842802501

  Charge       = 0
  Multiplicity = 2
  Electrons    = 21
  Nalpha       = 11
  Nbeta        = 10

  ==> Algorithm <==

  SCF Algorithm Type is DF.
  DIIS enabled.
  MOM disabled.
  Fractional occupation disabled.
  Guess Type is GWH.
  Energy threshold   = 1.00e-08
  Density threshold  = 1.00e-08
  Integral threshold = 0.00e+00

  ==> Primary Basis <==

  Basis Set: DEF2-TZVP
    Blend: DEF2-TZVP
    Number of shells: 33
    Number of basis function: 93
    Number of Cartesian functions: 108
    Spherical Harmonics?: true
    Max angular momentum: 3

  ==> DFT Potential <==

   => Composite Functional: PWPB95-D3BJ <= 

    PWPB95 SOS Double Hybrid XC Functional

    L. Goerigk, S.Grimme, J.Chem. Theory Compt. 7, 291-309, 2011 


    Deriv               =              1
    GGA                 =           TRUE
    Meta                =           TRUE

    Exchange Hybrid     =           TRUE
    MP2 Hybrid          =           TRUE

   => Exchange Functionals <=

    0.5000    XC_GGA_X_PW91

   => Exact (HF) Exchange <=

    0.5000               HF 

   => Correlation Functionals <=

    0.7310   XC_MGGA_C_BC95

   => MP2 Correlation <=

    MP2 SCS Hybrid      =           TRUE
    MP2 OS Alpha        =       0.269000
    MP2 SS Alpha        =       0.000000

   => Molecular Quadrature <=

    Radial Scheme       =       TREUTLER
    Pruning Scheme      =           FLAT
    Nuclear Scheme      =       TREUTLER

    BS radius alpha     =              1
    Pruning alpha       =              1
    Radial Points       =             75
    Spherical Points    =            302
    Total Points        =          65923
    Total Blocks        =            568
    Max Points          =            256
    Max Functions       =             92

   => -D3BJ: Empirical Dispersion <=

    Grimme's -D3 (BJ-damping) Dispersion Correction
    Grimme S.; Ehrlich S.; Goerigk L. (2011), J. Comput. Chem., 32: 1456
    Parametrisation from: 
    L. Goerigk, S. Grimme, Phys. Chem. Chem. Phys. 13, 6670-6688, 2011


        S6 =   8.200000E-01
        S8 =   2.904000E-01
        A1 =   0.000000E+00
        A2 =   7.314100E+00

   => Loading Basis Set <=

    Name: (DEF2-TZVP AUX)
    Role: JKFIT
    Keyword: DF_BASIS_SCF
    atoms 1 entry C          line   203 file /home/yuant/psi4conda/share/psi4/basis/def2-tzvp-jkfit.gbs 
    atoms 2 entry N          line   263 file /home/yuant/psi4conda/share/psi4/basis/def2-tzvp-jkfit.gbs 
    atoms 3 entry O          line   323 file /home/yuant/psi4conda/share/psi4/basis/def2-tzvp-jkfit.gbs 

  ==> Pre-Iterations <==

   -------------------------------------------------------
    Irrep   Nso     Nmo     Nalpha   Nbeta   Ndocc  Nsocc
   -------------------------------------------------------
     A1        42      42       0       0       0       0
     A2         9       9       0       0       0       0
     B1        21      21       0       0       0       0
     B2        21      21       0       0       0       0
   -------------------------------------------------------
    Total      93      93      11      10      10       1
   -------------------------------------------------------

  ==> Integral Setup <==

  ==> MemDFJK: Density-Fitted J/K Matrices <==

    J tasked:                   Yes
    K tasked:                   Yes
    wK tasked:                   No
    OpenMP threads:               1
    Memory (MB):               1430
    Algorithm:                 Core
    Schwarz Cutoff:           1E-12
    Mask sparsity (%):       0.5319
    Fitting Condition:        1E-12

   => Auxiliary Basis Set <=

  Basis Set: (DEF2-TZVP AUX)
    Blend: DEF2-TZVP-JKFIT
    Number of shells: 75
    Number of basis function: 229
    Number of Cartesian functions: 275
    Spherical Harmonics?: true
    Max angular momentum: 4

  Minimum eigenvalue in the overlap matrix is 2.5071751500E-04.
  Using Symmetric Orthogonalization.

  SCF Guess: Generalized Wolfsberg-Helmholtz.

  ==> Iterations <==

                           Total Energy        Delta E     RMS |[F,P]|

    Occupation by irrep:
             A1    A2    B1    B2 
    DOCC [     7,    0,    1,    2 ]
    SOCC [     0,    0,    1,    0 ]

   @DF-UKS iter   1:  -155.87370887051389   -1.55874e+02   3.45178e-01 
    Occupation by irrep:
             A1    A2    B1    B2 
    DOCC [     6,    0,    2,    2 ]
    SOCC [     1,    0,    0,    0 ]

   @DF-UKS iter   2:  -155.47733902351797    3.96370e-01   7.19975e-02 DIIS
   @DF-UKS iter   3:  -144.16088561559593    1.13165e+01   1.24827e-01 DIIS
    Occupation by irrep:
             A1    A2    B1    B2 
    DOCC [     7,    0,    1,    2 ]
    SOCC [     0,    0,    1,    0 ]

   @DF-UKS iter   4:  -160.24371627714862   -1.60828e+01   6.77085e-02 DIIS
   @DF-UKS iter   5:  -167.04215420376343   -6.79844e+00   2.71424e-02 DIIS
   @DF-UKS iter   6:  -167.34945346356216   -3.07299e-01   1.94623e-02 DIIS
   @DF-UKS iter   7:  -167.81105999257690   -4.61607e-01   3.36960e-03 DIIS
   @DF-UKS iter   8:  -167.82877801396262   -1.77180e-02   2.10761e-03 DIIS
   @DF-UKS iter   9:  -167.83390592446949   -5.12791e-03   7.59907e-04 DIIS
   @DF-UKS iter  10:  -167.83502441275090   -1.11849e-03   3.23584e-04 DIIS
   @DF-UKS iter  11:  -167.83540769416126   -3.83281e-04   1.22382e-04 DIIS
   @DF-UKS iter  12:  -167.83548372943082   -7.60353e-05   4.50784e-05 DIIS
   @DF-UKS iter  13:  -167.83549822037426   -1.44909e-05   1.80330e-05 DIIS
   @DF-UKS iter  14:  -167.83549937228906   -1.15191e-06   3.58937e-06 DIIS
   @DF-UKS iter  15:  -167.83549943992020   -6.76311e-08   8.24733e-07 DIIS
   @DF-UKS iter  16:  -167.83549944341206   -3.49186e-09   2.02543e-07 DIIS
   @DF-UKS iter  17:  -167.83549944369014   -2.78078e-10   9.39094e-08 DIIS
   @DF-UKS iter  18:  -167.83549944376801   -7.78755e-11   3.86533e-08 DIIS
   @DF-UKS iter  19:  -167.83549944378194   -1.39266e-11   1.63233e-08 DIIS
   @DF-UKS iter  20:  -167.83549944378302   -1.08002e-12   3.39085e-09 DIIS

  ==> Post-Iterations <==

   @Spin Contamination Metric:   2.280775085E-02
   @S^2 Expected:                7.500000000E-01
   @S^2 Observed:                7.728077508E-01
   @S   Expected:                5.000000000E-01
   @S   Observed:                5.000000000E-01

    Orbital Energies [Eh]
    ---------------------

    Alpha Occupied:                                                       

       1A1   -19.786228     2A1   -14.865351     3A1   -10.731098  
       4A1    -1.310886     5A1    -1.088042     6A1    -0.659907  
       1B1    -0.607036     1B2    -0.584313     7A1    -0.518809  
       2B1    -0.436261     2B2    -0.393993  

    Alpha Virtual:                                                        

       8A1     0.073202     3B1     0.081291     3B2     0.101677  
       9A1     0.196450     4B1     0.224089     4B2     0.230860  
      10A1     0.350465    11A1     0.376622     5B1     0.418666  
       5B2     0.433338    12A1     0.440437     6B1     0.593653  
       6B2     0.604502    13A1     0.630069     1A2     0.631021  
      14A1     0.644220    15A1     0.842404     7B1     0.996888  
      16A1     1.013286     7B2     1.017638     2A2     1.157507  
      17A1     1.158133    18A1     1.294102    19A1     1.389718  
       8B1     1.407941     8B2     1.414926    20A1     1.624399  
       3A2     1.626606     9B1     1.626967    21A1     1.639232  
       9B2     1.649079    10B1     2.004458    10B2     2.024059  
      22A1     2.060014    23A1     2.238516    11B1     2.408192  
      11B2     2.438270    24A1     2.503601    12B1     2.648042  
      12B2     2.648042    13B1     2.805492    13B2     2.822600  
      25A1     2.866383     4A2     2.866488     5A2     2.950232  
      26A1     2.950256    27A1     3.065685    14B1     3.146776  
      14B2     3.169454    28A1     3.273615    29A1     3.586041  
      15B1     3.655534    15B2     3.672290    16B1     3.981207  
      16B2     3.981214    30A1     4.335036     6A2     4.387763  
      31A1     4.391636    32A1     4.596773     7A2     4.598096  
      33A1     4.683475    17B1     5.044480    17B2     5.074359  
      18B1     5.194544    18B2     5.194554    19B1     5.410594  
      19B2     5.437306    34A1     5.476573     8A2     5.717514  
      35A1     5.717801    36A1     5.763362     9A2     6.366741  
      37A1     6.366765    20B1     6.627835    20B2     6.646114  
      21B1     6.902781    21B2     6.922702    38A1     7.135469  
      39A1     7.356043    40A1    23.983052    41A1    32.376156  
      42A1    44.566665  

    Beta Occupied:                                                        

       1A1   -19.775092     2A1   -14.848916     3A1   -10.734071  
       4A1    -1.288586     5A1    -1.033475     6A1    -0.644510  
       1B2    -0.578594     1B1    -0.535151     7A1    -0.489521  
       2B2    -0.371602  

    Beta Virtual:                                                         

       2B1    -0.155380     8A1     0.076724     3B2     0.106787  
       3B1     0.146562     9A1     0.199955     4B1     0.225714  
       4B2     0.229740    10A1     0.355776    11A1     0.382888  
       5B2     0.439175    12A1     0.443200     5B1     0.451131  
       6B2     0.607960     6B1     0.616681     1A2     0.635996  
      13A1     0.636199    14A1     0.651418    15A1     0.848525  
       7B2     1.021628     7B1     1.026842    16A1     1.028910  
       2A2     1.191416    17A1     1.191505    18A1     1.300206  
      19A1     1.391674     8B1     1.403661     8B2     1.410466  
      20A1     1.643848     3A2     1.644849    21A1     1.645280  
       9B2     1.655084     9B1     1.658154    10B2     2.029739  
      10B1     2.034359    22A1     2.068170    23A1     2.260649  
      11B2     2.451153    11B1     2.462161    24A1     2.511089  
      12B1     2.645985    12B2     2.646000    13B2     2.824910  
      13B1     2.828077     4A2     2.876184    25A1     2.876201  
       5A2     2.944849    26A1     2.944858    27A1     3.077044  
      14B2     3.174848    14B1     3.176570    28A1     3.280006  
      29A1     3.594291    15B1     3.670546    15B2     3.674398  
      16B1     4.021845    16B2     4.023333    30A1     4.354781  
      31A1     4.421794     6A2     4.423374    32A1     4.645782  
       7A2     4.648229    33A1     4.697990    17B2     5.085620  
      17B1     5.085940    18B1     5.212592    18B2     5.212671  
      19B1     5.443035    19B2     5.445650    34A1     5.491873  
      35A1     5.730847     8A2     5.731002    36A1     5.775704  
      37A1     6.395078     9A2     6.395540    20B1     6.644560  
      20B2     6.649238    21B1     6.926472    21B2     6.927412  
      38A1     7.146463    39A1     7.362576    40A1    23.981236  
      41A1    32.391638    42A1    44.575377  

    Final Occupation by Irrep:
             A1    A2    B1    B2 
    DOCC [     7,    0,    1,    2 ]
    SOCC [     0,    0,    1,    0 ]

  Energy converged.

  @DF-UKS Final Energy:  -167.83549944378302

   => Energetics <=

    Nuclear Repulsion Energy =             52.8048988428025012
    One-Electron Energy =                -332.2718409152233789
    Two-Electron Energy =                 122.2639943517506396
    DFT Exchange-Correlation Energy =     -10.6321783331127921
    Empirical Dispersion Energy =          -0.0003733900000000
    VV10 Nonlocal Energy =                  0.0000000000000000
    Total Energy =                       -167.8354994437830214


  UHF NO Occupations:
  HONO-2 :    2 B2 1.9990745
  HONO-1 :    1 B1 1.9904378
  HONO-0 :    2 B1 1.0000000
  LUNO+0 :    3 B1 0.0095622
  LUNO+1 :    3 B2 0.0009255
  LUNO+2 :    8 A1 0.0006648
  LUNO+3 :    9 A1 0.0001362



Properties will be evaluated at   0.000000,   0.000000,   0.000000 [a0]

Properties computed using the SCF density matrix

  Nuclear Dipole Moment: [e a0]
     X:     0.0000      Y:     0.0000      Z:    -0.0090

  Electronic Dipole Moment: [e a0]
     X:     0.0000      Y:     0.0000      Z:    -0.2896

  Dipole Moment: [e a0]
     X:     0.0000      Y:     0.0000      Z:    -0.2986     Total:     0.2986

  Dipole Moment: [D]
     X:     0.0000      Y:     0.0000      Z:    -0.7591     Total:     0.7591


*** tstop() called on linux-en55 at Sun Nov 25 06:12:51 2018
Module time:
	user time   =      13.66 seconds =       0.23 minutes
	system time =       0.03 seconds =       0.00 minutes
	total time  =         13 seconds =       0.22 minutes
Total time:
	user time   =      27.69 seconds =       0.46 minutes
	system time =       0.06 seconds =       0.00 minutes
	total time  =         27 seconds =       0.45 minutes

*** tstart() called on linux-en55
*** at Sun Nov 25 06:12:51 2018

   => Loading Basis Set <=

    Name: (DEF2-TZVP AUX)
    Role: RIFIT
    Keyword: DF_BASIS_MP2
    atoms 1 entry C          line   179 file /home/yuant/psi4conda/share/psi4/basis/def2-tzvp-ri.gbs 
    atoms 2 entry N          line   226 file /home/yuant/psi4conda/share/psi4/basis/def2-tzvp-ri.gbs 
    atoms 3 entry O          line   273 file /home/yuant/psi4conda/share/psi4/basis/def2-tzvp-ri.gbs 

	 --------------------------------------------------------
	                          DF-MP2                         
	      2nd-Order Density-Fitted Moller-Plesset Theory     
	              UMP2 Wavefunction,   1 Threads             
	                                                         
	        Rob Parrish, Justin Turney, Andy Simmonett,      
	           Ed Hohenstein, and C. David Sherrill          
	 --------------------------------------------------------

	 --------------------------------------------------------
	                 NBF =    93, NAUX =   228
	 --------------------------------------------------------
	   CLASS    FOCC     OCC    AOCC    AVIR     VIR    FVIR
	   ALPHA       0      11      11      82      82       0
	    BETA       0      10      10      83      83       0
	 --------------------------------------------------------

	-----------------------------------------------------------
	 ==================> DF-MP2 Energies <==================== 
	-----------------------------------------------------------
	 Reference Energy          =    -167.8354994437830214 [Eh]
	 Singles Energy            =      -0.0000000000000226 [Eh]
	 Same-Spin Energy          =      -0.1842107842871294 [Eh]
	 Opposite-Spin Energy      =      -0.5370416264063095 [Eh]
	 Correlation Energy        =      -0.7212524106934615 [Eh]
	 Total Energy              =    -168.5567518544764880 [Eh]
	-----------------------------------------------------------
	 ================> DF-SCS-MP2 Energies <================== 
	-----------------------------------------------------------
	 SCS Same-Spin Scale       =       0.0000000000000000 [-]
	 SCS Opposite-Spin Scale   =       0.2690000000000000 [-]
	 SCS Same-Spin Energy      =      -0.0000000000000000 [Eh]
	 SCS Opposite-Spin Energy  =      -0.1444641975032973 [Eh]
	 SCS Correlation Energy    =      -0.1444641975033198 [Eh]
	 SCS Total Energy          =    -167.9799636412863322 [Eh]
	-----------------------------------------------------------



    PWPB95-D3BJ Energy Summary
    -------------------------
    DFT Reference Energy                  =  -167.8354994437830214
    Scaled MP2 Correlation                =    -0.1444641975033198
    @Final double-hybrid DFT total energy =  -167.9799636412863322


*** tstop() called on linux-en55 at Sun Nov 25 06:12:52 2018
Module time:
	user time   =       0.19 seconds =       0.00 minutes
	system time =       0.00 seconds =       0.00 minutes
	total time  =          1 seconds =       0.02 minutes
Total time:
	user time   =      27.88 seconds =       0.46 minutes
	system time =       0.06 seconds =       0.00 minutes
	total time  =         28 seconds =       0.47 minutes

  //>>>>>>>>>>>>>>>>>>>>>>>>>>>>>>>>>>>//
  //    Loading displacement 3 of 5    //
  //<<<<<<<<<<<<<<<<<<<<<<<<<<<<<<<<<<<//

*** tstart() called on linux-en55
*** at Sun Nov 25 06:12:52 2018

   => Loading Basis Set <=

    Name: DEF2-TZVP
    Role: ORBITAL
    Keyword: BASIS
    atoms 1 entry C          line   123 file /home/yuant/psi4conda/share/psi4/basis/def2-tzvp.gbs 
    atoms 2 entry N          line   156 file /home/yuant/psi4conda/share/psi4/basis/def2-tzvp.gbs 
    atoms 3 entry O          line   189 file /home/yuant/psi4conda/share/psi4/basis/def2-tzvp.gbs 


         ---------------------------------------------------------
                                   SCF
            by Justin Turney, Rob Parrish, Andy Simmonett
                             and Daniel Smith
                              UKS Reference
                        1 Threads,   1907 MiB Core
         ---------------------------------------------------------

  ==> Geometry <==

    Molecular point group: c2v
    Full point group: C_inf_v

    Geometry (in Angstrom), charge = 0, multiplicity = 2:

       Center              X                  Y                   Z               Mass       
    ------------   -----------------  -----------------  -----------------  -----------------
         C            0.000000000000     0.000000000000     0.031201530587    12.000000000000
         N            0.000000000000     0.000000000000     1.250685227956    14.003074004780
         O            0.000000000000     0.000000000000    -1.118346461751    15.994914619560

  Running in c2v symmetry.

  Rotational constants: A = ************  B =      0.40214  C =      0.40214 [cm^-1]
  Rotational constants: A = ************  B =  12055.71030  C =  12055.71030 [MHz]
  Nuclear repulsion =   52.830246370149091

  Charge       = 0
  Multiplicity = 2
  Electrons    = 21
  Nalpha       = 11
  Nbeta        = 10

  ==> Algorithm <==

  SCF Algorithm Type is DF.
  DIIS enabled.
  MOM disabled.
  Fractional occupation disabled.
  Guess Type is GWH.
  Energy threshold   = 1.00e-08
  Density threshold  = 1.00e-08
  Integral threshold = 0.00e+00

  ==> Primary Basis <==

  Basis Set: DEF2-TZVP
    Blend: DEF2-TZVP
    Number of shells: 33
    Number of basis function: 93
    Number of Cartesian functions: 108
    Spherical Harmonics?: true
    Max angular momentum: 3

  ==> DFT Potential <==

   => Composite Functional: PWPB95-D3BJ <= 

    PWPB95 SOS Double Hybrid XC Functional

    L. Goerigk, S.Grimme, J.Chem. Theory Compt. 7, 291-309, 2011 


    Deriv               =              1
    GGA                 =           TRUE
    Meta                =           TRUE

    Exchange Hybrid     =           TRUE
    MP2 Hybrid          =           TRUE

   => Exchange Functionals <=

    0.5000    XC_GGA_X_PW91

   => Exact (HF) Exchange <=

    0.5000               HF 

   => Correlation Functionals <=

    0.7310   XC_MGGA_C_BC95

   => MP2 Correlation <=

    MP2 SCS Hybrid      =           TRUE
    MP2 OS Alpha        =       0.269000
    MP2 SS Alpha        =       0.000000

   => Molecular Quadrature <=

    Radial Scheme       =       TREUTLER
    Pruning Scheme      =           FLAT
    Nuclear Scheme      =       TREUTLER

    BS radius alpha     =              1
    Pruning alpha       =              1
    Radial Points       =             75
    Spherical Points    =            302
    Total Points        =          65923
    Total Blocks        =            569
    Max Points          =            255
    Max Functions       =             92

   => -D3BJ: Empirical Dispersion <=

    Grimme's -D3 (BJ-damping) Dispersion Correction
    Grimme S.; Ehrlich S.; Goerigk L. (2011), J. Comput. Chem., 32: 1456
    Parametrisation from: 
    L. Goerigk, S. Grimme, Phys. Chem. Chem. Phys. 13, 6670-6688, 2011


        S6 =   8.200000E-01
        S8 =   2.904000E-01
        A1 =   0.000000E+00
        A2 =   7.314100E+00

   => Loading Basis Set <=

    Name: (DEF2-TZVP AUX)
    Role: JKFIT
    Keyword: DF_BASIS_SCF
    atoms 1 entry C          line   203 file /home/yuant/psi4conda/share/psi4/basis/def2-tzvp-jkfit.gbs 
    atoms 2 entry N          line   263 file /home/yuant/psi4conda/share/psi4/basis/def2-tzvp-jkfit.gbs 
    atoms 3 entry O          line   323 file /home/yuant/psi4conda/share/psi4/basis/def2-tzvp-jkfit.gbs 

  ==> Pre-Iterations <==

   -------------------------------------------------------
    Irrep   Nso     Nmo     Nalpha   Nbeta   Ndocc  Nsocc
   -------------------------------------------------------
     A1        42      42       0       0       0       0
     A2         9       9       0       0       0       0
     B1        21      21       0       0       0       0
     B2        21      21       0       0       0       0
   -------------------------------------------------------
    Total      93      93      11      10      10       1
   -------------------------------------------------------

  ==> Integral Setup <==

  ==> MemDFJK: Density-Fitted J/K Matrices <==

    J tasked:                   Yes
    K tasked:                   Yes
    wK tasked:                   No
    OpenMP threads:               1
    Memory (MB):               1430
    Algorithm:                 Core
    Schwarz Cutoff:           1E-12
    Mask sparsity (%):       0.5319
    Fitting Condition:        1E-12

   => Auxiliary Basis Set <=

  Basis Set: (DEF2-TZVP AUX)
    Blend: DEF2-TZVP-JKFIT
    Number of shells: 75
    Number of basis function: 229
    Number of Cartesian functions: 275
    Spherical Harmonics?: true
    Max angular momentum: 4

  Minimum eigenvalue in the overlap matrix is 2.5016928852E-04.
  Using Symmetric Orthogonalization.

  SCF Guess: Generalized Wolfsberg-Helmholtz.

  ==> Iterations <==

                           Total Energy        Delta E     RMS |[F,P]|

    Occupation by irrep:
             A1    A2    B1    B2 
    DOCC [     7,    0,    1,    2 ]
    SOCC [     0,    0,    1,    0 ]

   @DF-UKS iter   1:  -155.87208848099510   -1.55872e+02   3.45159e-01 
    Occupation by irrep:
             A1    A2    B1    B2 
    DOCC [     6,    0,    2,    2 ]
    SOCC [     1,    0,    0,    0 ]

   @DF-UKS iter   2:  -155.47346721432476    3.98621e-01   7.20288e-02 DIIS
   @DF-UKS iter   3:  -144.17690549617430    1.12966e+01   1.24810e-01 DIIS
    Occupation by irrep:
             A1    A2    B1    B2 
    DOCC [     7,    0,    1,    2 ]
    SOCC [     0,    0,    1,    0 ]

   @DF-UKS iter   4:  -160.24828569036225   -1.60714e+01   6.76695e-02 DIIS
   @DF-UKS iter   5:  -167.04653105673938   -6.79825e+00   2.70813e-02 DIIS
   @DF-UKS iter   6:  -167.35087691892048   -3.04346e-01   1.94431e-02 DIIS
   @DF-UKS iter   7:  -167.81114926560599   -4.60272e-01   3.35918e-03 DIIS
   @DF-UKS iter   8:  -167.82878423667913   -1.76350e-02   2.10208e-03 DIIS
   @DF-UKS iter   9:  -167.83388205671284   -5.09782e-03   7.55409e-04 DIIS
   @DF-UKS iter  10:  -167.83498146785985   -1.09941e-03   3.24610e-04 DIIS
   @DF-UKS iter  11:  -167.83536214904620   -3.80681e-04   1.21517e-04 DIIS
   @DF-UKS iter  12:  -167.83543718896686   -7.50399e-05   4.43565e-05 DIIS
   @DF-UKS iter  13:  -167.83545138144436   -1.41925e-05   1.77672e-05 DIIS
   @DF-UKS iter  14:  -167.83545250184469   -1.12040e-06   3.53892e-06 DIIS
   @DF-UKS iter  15:  -167.83545256784760   -6.60029e-08   8.11880e-07 DIIS
   @DF-UKS iter  16:  -167.83545257122347   -3.37587e-09   1.95912e-07 DIIS
   @DF-UKS iter  17:  -167.83545257148117   -2.57700e-10   8.98305e-08 DIIS
   @DF-UKS iter  18:  -167.83545257155166   -7.04858e-11   3.72081e-08 DIIS
   @DF-UKS iter  19:  -167.83545257156450   -1.28466e-11   1.58228e-08 DIIS
   @DF-UKS iter  20:  -167.83545257156570   -1.19371e-12   3.37867e-09 DIIS

  ==> Post-Iterations <==

   @Spin Contamination Metric:   2.255737909E-02
   @S^2 Expected:                7.500000000E-01
   @S^2 Observed:                7.725573791E-01
   @S   Expected:                5.000000000E-01
   @S   Observed:                5.000000000E-01

    Orbital Energies [Eh]
    ---------------------

    Alpha Occupied:                                                       

       1A1   -19.786088     2A1   -14.865166     3A1   -10.731037  
       4A1    -1.311635     5A1    -1.087804     6A1    -0.660016  
       1B1    -0.607347     1B2    -0.584710     7A1    -0.518709  
       2B1    -0.436070     2B2    -0.393773  

    Alpha Virtual:                                                        

       8A1     0.073252     3B1     0.081556     3B2     0.101953  
       9A1     0.196450     4B1     0.224010     4B2     0.230790  
      10A1     0.350559    11A1     0.376971     5B1     0.418643  
       5B2     0.433328    12A1     0.440505     6B1     0.593757  
       6B2     0.604581    13A1     0.630013     1A2     0.630956  
      14A1     0.644270    15A1     0.842418     7B1     0.997241  
      16A1     1.014449     7B2     1.018016     2A2     1.157459  
      17A1     1.158091    18A1     1.294882    19A1     1.389528  
       8B1     1.407577     8B2     1.414586    20A1     1.624623  
       3A2     1.626980     9B1     1.627285    21A1     1.638789  
       9B2     1.649422    10B1     2.004542    10B2     2.024099  
      22A1     2.060586    23A1     2.238529    11B1     2.407988  
      11B2     2.438090    24A1     2.504863    12B1     2.647950  
      12B2     2.647951    13B1     2.805578    13B2     2.822690  
      25A1     2.866634     4A2     2.866738     5A2     2.950275  
      26A1     2.950300    27A1     3.065984    14B1     3.148227  
      14B2     3.170876    28A1     3.274555    29A1     3.587341  
      15B1     3.656247    15B2     3.672993    16B1     3.981262  
      16B2     3.981269    30A1     4.332747     6A2     4.387620  
      31A1     4.391366    32A1     4.596868     7A2     4.598160  
      33A1     4.686042    17B1     5.044960    17B2     5.074873  
      18B1     5.194680    18B2     5.194691    19B1     5.409993  
      19B2     5.436751    34A1     5.477321     8A2     5.719656  
      35A1     5.719942    36A1     5.764505     9A2     6.367098  
      37A1     6.367122    20B1     6.629666    20B2     6.647868  
      21B1     6.903167    21B2     6.923003    38A1     7.139102  
      39A1     7.360036    40A1    23.985390    41A1    32.375890  
      42A1    44.569300  

    Beta Occupied:                                                        

       1A1   -19.775025     2A1   -14.848712     3A1   -10.733991  
       4A1    -1.289509     5A1    -1.033160     6A1    -0.644690  
       1B2    -0.579033     1B1    -0.535797     7A1    -0.489377  
       2B2    -0.371376  

    Beta Virtual:                                                         

       2B1    -0.155112     8A1     0.076781     3B2     0.107075  
       3B1     0.146840     9A1     0.199951     4B1     0.225653  
       4B2     0.229676    10A1     0.355874    11A1     0.383281  
       5B2     0.439166    12A1     0.443275     5B1     0.451131  
       6B2     0.608028     6B1     0.616722     1A2     0.635978  
      13A1     0.636181    14A1     0.651489    15A1     0.848521  
       7B2     1.022023     7B1     1.027239    16A1     1.030063  
       2A2     1.191418    17A1     1.191510    18A1     1.301005  
      19A1     1.391499     8B1     1.403361     8B2     1.410155  
      20A1     1.643414     3A2     1.645131    21A1     1.645416  
       9B2     1.655433     9B1     1.658506    10B2     2.029758  
      10B1     2.034360    22A1     2.068737    23A1     2.260691  
      11B2     2.450979    11B1     2.461994    24A1     2.512346  
      12B1     2.645955    12B2     2.645969    13B2     2.825006  
      13B1     2.828162     4A2     2.876439    25A1     2.876457  
       5A2     2.945003    26A1     2.945013    27A1     3.077301  
      14B2     3.176260    14B1     3.177954    28A1     3.280938  
      29A1     3.595624    15B1     3.671258    15B2     3.675107  
      16B1     4.021964    16B2     4.023458    30A1     4.352387  
      31A1     4.421678     6A2     4.423265    32A1     4.645932  
       7A2     4.648382    33A1     4.700593    17B2     5.086142  
      17B1     5.086464    18B1     5.212607    18B2     5.212684  
      19B1     5.442519    19B2     5.445122    34A1     5.492614  
      35A1     5.732924     8A2     5.733079    36A1     5.776845  
      37A1     6.395242     9A2     6.395699    20B1     6.646273  
      20B2     6.650960    21B1     6.926746    21B2     6.927685  
      38A1     7.150085    39A1     7.366491    40A1    23.983599  
      41A1    32.391393    42A1    44.577954  

    Final Occupation by Irrep:
             A1    A2    B1    B2 
    DOCC [     7,    0,    1,    2 ]
    SOCC [     0,    0,    1,    0 ]

  Energy converged.

  @DF-UKS Final Energy:  -167.83545257156570

   => Energetics <=

    Nuclear Repulsion Energy =             52.8302463701490908
    One-Electron Energy =                -332.3204816433850510
    Two-Electron Energy =                 122.2878832306779771
    DFT Exchange-Correlation Energy =     -10.6327271290077405
    Empirical Dispersion Energy =          -0.0003734000000000
    VV10 Nonlocal Energy =                  0.0000000000000000
    Total Energy =                       -167.8354525715657246


  UHF NO Occupations:
  HONO-2 :    2 B2 1.9990755
  HONO-1 :    1 B1 1.9905625
  HONO-0 :    2 B1 1.0000000
  LUNO+0 :    3 B1 0.0094375
  LUNO+1 :    3 B2 0.0009245
  LUNO+2 :    8 A1 0.0006669
  LUNO+3 :    9 A1 0.0001350



Properties will be evaluated at   0.000000,   0.000000,   0.000000 [a0]

Properties computed using the SCF density matrix

  Nuclear Dipole Moment: [e a0]
     X:     0.0000      Y:     0.0000      Z:    -0.0090

  Electronic Dipole Moment: [e a0]
     X:     0.0000      Y:     0.0000      Z:    -0.2919

  Dipole Moment: [e a0]
     X:     0.0000      Y:     0.0000      Z:    -0.3009     Total:     0.3009

  Dipole Moment: [D]
     X:     0.0000      Y:     0.0000      Z:    -0.7649     Total:     0.7649


*** tstop() called on linux-en55 at Sun Nov 25 06:13:05 2018
Module time:
	user time   =      13.72 seconds =       0.23 minutes
	system time =       0.03 seconds =       0.00 minutes
	total time  =         13 seconds =       0.22 minutes
Total time:
	user time   =      41.61 seconds =       0.69 minutes
	system time =       0.09 seconds =       0.00 minutes
	total time  =         41 seconds =       0.68 minutes

*** tstart() called on linux-en55
*** at Sun Nov 25 06:13:05 2018

   => Loading Basis Set <=

    Name: (DEF2-TZVP AUX)
    Role: RIFIT
    Keyword: DF_BASIS_MP2
    atoms 1 entry C          line   179 file /home/yuant/psi4conda/share/psi4/basis/def2-tzvp-ri.gbs 
    atoms 2 entry N          line   226 file /home/yuant/psi4conda/share/psi4/basis/def2-tzvp-ri.gbs 
    atoms 3 entry O          line   273 file /home/yuant/psi4conda/share/psi4/basis/def2-tzvp-ri.gbs 

	 --------------------------------------------------------
	                          DF-MP2                         
	      2nd-Order Density-Fitted Moller-Plesset Theory     
	              UMP2 Wavefunction,   1 Threads             
	                                                         
	        Rob Parrish, Justin Turney, Andy Simmonett,      
	           Ed Hohenstein, and C. David Sherrill          
	 --------------------------------------------------------

	 --------------------------------------------------------
	                 NBF =    93, NAUX =   228
	 --------------------------------------------------------
	   CLASS    FOCC     OCC    AOCC    AVIR     VIR    FVIR
	   ALPHA       0      11      11      82      82       0
	    BETA       0      10      10      83      83       0
	 --------------------------------------------------------

	-----------------------------------------------------------
	 ==================> DF-MP2 Energies <==================== 
	-----------------------------------------------------------
	 Reference Energy          =    -167.8354525715656962 [Eh]
	 Singles Energy            =      -0.0000000000000233 [Eh]
	 Same-Spin Energy          =      -0.1841176781371187 [Eh]
	 Opposite-Spin Energy      =      -0.5368576863959182 [Eh]
	 Correlation Energy        =      -0.7209753645330601 [Eh]
	 Total Energy              =    -168.5564279360987427 [Eh]
	-----------------------------------------------------------
	 ================> DF-SCS-MP2 Energies <================== 
	-----------------------------------------------------------
	 SCS Same-Spin Scale       =       0.0000000000000000 [-]
	 SCS Opposite-Spin Scale   =       0.2690000000000000 [-]
	 SCS Same-Spin Energy      =      -0.0000000000000000 [Eh]
	 SCS Opposite-Spin Energy  =      -0.1444147176405020 [Eh]
	 SCS Correlation Energy    =      -0.1444147176405253 [Eh]
	 SCS Total Energy          =    -167.9798672892062257 [Eh]
	-----------------------------------------------------------



    PWPB95-D3BJ Energy Summary
    -------------------------
    DFT Reference Energy                  =  -167.8354525715656962
    Scaled MP2 Correlation                =    -0.1444147176405253
    @Final double-hybrid DFT total energy =  -167.9798672892062257


*** tstop() called on linux-en55 at Sun Nov 25 06:13:06 2018
Module time:
	user time   =       0.20 seconds =       0.00 minutes
	system time =       0.00 seconds =       0.00 minutes
	total time  =          1 seconds =       0.02 minutes
Total time:
	user time   =      41.81 seconds =       0.70 minutes
	system time =       0.09 seconds =       0.00 minutes
	total time  =         42 seconds =       0.70 minutes

  //>>>>>>>>>>>>>>>>>>>>>>>>>>>>>>>>>>>//
  //    Loading displacement 4 of 5    //
  //<<<<<<<<<<<<<<<<<<<<<<<<<<<<<<<<<<<//

*** tstart() called on linux-en55
*** at Sun Nov 25 06:13:06 2018

   => Loading Basis Set <=

    Name: DEF2-TZVP
    Role: ORBITAL
    Keyword: BASIS
    atoms 1 entry C          line   123 file /home/yuant/psi4conda/share/psi4/basis/def2-tzvp.gbs 
    atoms 2 entry N          line   156 file /home/yuant/psi4conda/share/psi4/basis/def2-tzvp.gbs 
    atoms 3 entry O          line   189 file /home/yuant/psi4conda/share/psi4/basis/def2-tzvp.gbs 


         ---------------------------------------------------------
                                   SCF
            by Justin Turney, Rob Parrish, Andy Simmonett
                             and Daniel Smith
                              UKS Reference
                        1 Threads,   1907 MiB Core
         ---------------------------------------------------------

  ==> Geometry <==

    Molecular point group: c2v
    Full point group: C_inf_v

    Geometry (in Angstrom), charge = 0, multiplicity = 2:

       Center              X                  Y                   Z               Mass       
    ------------   -----------------  -----------------  -----------------  -----------------
         C            0.000000000000     0.000000000000     0.031201530587    12.000000000000
         N            0.000000000000     0.000000000000     1.251717833219    14.003074004780
         O            0.000000000000     0.000000000000    -1.119250477074    15.994914619560

  Running in c2v symmetry.

  Rotational constants: A = ************  B =      0.40148  C =      0.40148 [cm^-1]
  Rotational constants: A = ************  B =  12036.03166  C =  12036.03166 [MHz]
  Nuclear repulsion =   52.787246818552504

  Charge       = 0
  Multiplicity = 2
  Electrons    = 21
  Nalpha       = 11
  Nbeta        = 10

  ==> Algorithm <==

  SCF Algorithm Type is DF.
  DIIS enabled.
  MOM disabled.
  Fractional occupation disabled.
  Guess Type is GWH.
  Energy threshold   = 1.00e-08
  Density threshold  = 1.00e-08
  Integral threshold = 0.00e+00

  ==> Primary Basis <==

  Basis Set: DEF2-TZVP
    Blend: DEF2-TZVP
    Number of shells: 33
    Number of basis function: 93
    Number of Cartesian functions: 108
    Spherical Harmonics?: true
    Max angular momentum: 3

  ==> DFT Potential <==

   => Composite Functional: PWPB95-D3BJ <= 

    PWPB95 SOS Double Hybrid XC Functional

    L. Goerigk, S.Grimme, J.Chem. Theory Compt. 7, 291-309, 2011 


    Deriv               =              1
    GGA                 =           TRUE
    Meta                =           TRUE

    Exchange Hybrid     =           TRUE
    MP2 Hybrid          =           TRUE

   => Exchange Functionals <=

    0.5000    XC_GGA_X_PW91

   => Exact (HF) Exchange <=

    0.5000               HF 

   => Correlation Functionals <=

    0.7310   XC_MGGA_C_BC95

   => MP2 Correlation <=

    MP2 SCS Hybrid      =           TRUE
    MP2 OS Alpha        =       0.269000
    MP2 SS Alpha        =       0.000000

   => Molecular Quadrature <=

    Radial Scheme       =       TREUTLER
    Pruning Scheme      =           FLAT
    Nuclear Scheme      =       TREUTLER

    BS radius alpha     =              1
    Pruning alpha       =              1
    Radial Points       =             75
    Spherical Points    =            302
    Total Points        =          65923
    Total Blocks        =            569
    Max Points          =            255
    Max Functions       =             92

   => -D3BJ: Empirical Dispersion <=

    Grimme's -D3 (BJ-damping) Dispersion Correction
    Grimme S.; Ehrlich S.; Goerigk L. (2011), J. Comput. Chem., 32: 1456
    Parametrisation from: 
    L. Goerigk, S. Grimme, Phys. Chem. Chem. Phys. 13, 6670-6688, 2011


        S6 =   8.200000E-01
        S8 =   2.904000E-01
        A1 =   0.000000E+00
        A2 =   7.314100E+00

   => Loading Basis Set <=

    Name: (DEF2-TZVP AUX)
    Role: JKFIT
    Keyword: DF_BASIS_SCF
    atoms 1 entry C          line   203 file /home/yuant/psi4conda/share/psi4/basis/def2-tzvp-jkfit.gbs 
    atoms 2 entry N          line   263 file /home/yuant/psi4conda/share/psi4/basis/def2-tzvp-jkfit.gbs 
    atoms 3 entry O          line   323 file /home/yuant/psi4conda/share/psi4/basis/def2-tzvp-jkfit.gbs 

  ==> Pre-Iterations <==

   -------------------------------------------------------
    Irrep   Nso     Nmo     Nalpha   Nbeta   Ndocc  Nsocc
   -------------------------------------------------------
     A1        42      42       0       0       0       0
     A2         9       9       0       0       0       0
     B1        21      21       0       0       0       0
     B2        21      21       0       0       0       0
   -------------------------------------------------------
    Total      93      93      11      10      10       1
   -------------------------------------------------------

  ==> Integral Setup <==

  ==> MemDFJK: Density-Fitted J/K Matrices <==

    J tasked:                   Yes
    K tasked:                   Yes
    wK tasked:                   No
    OpenMP threads:               1
    Memory (MB):               1430
    Algorithm:                 Core
    Schwarz Cutoff:           1E-12
    Mask sparsity (%):       0.5319
    Fitting Condition:        1E-12

   => Auxiliary Basis Set <=

  Basis Set: (DEF2-TZVP AUX)
    Blend: DEF2-TZVP-JKFIT
    Number of shells: 75
    Number of basis function: 229
    Number of Cartesian functions: 275
    Spherical Harmonics?: true
    Max angular momentum: 4

  Minimum eigenvalue in the overlap matrix is 2.5175785614E-04.
  Using Symmetric Orthogonalization.

  SCF Guess: Generalized Wolfsberg-Helmholtz.

  ==> Iterations <==

                           Total Energy        Delta E     RMS |[F,P]|

    Occupation by irrep:
             A1    A2    B1    B2 
    DOCC [     7,    0,    2,    1 ]
    SOCC [     0,    0,    0,    1 ]

   @DF-UKS iter   1:  -155.86920872974321   -1.55869e+02   3.45209e-01 
    Occupation by irrep:
             A1    A2    B1    B2 
    DOCC [     6,    0,    2,    2 ]
    SOCC [     1,    0,    0,    0 ]

   @DF-UKS iter   2:  -155.45358678265103    4.15622e-01   7.20580e-02 DIIS
   @DF-UKS iter   3:  -144.15170651589716    1.13019e+01   1.24841e-01 DIIS
    Occupation by irrep:
             A1    A2    B1    B2 
    DOCC [     7,    0,    2,    1 ]
    SOCC [     0,    0,    0,    1 ]

   @DF-UKS iter   4:  -160.23322160205521   -1.60815e+01   6.77045e-02 DIIS
   @DF-UKS iter   5:  -167.04441504685315   -6.81119e+00   2.71102e-02 DIIS
   @DF-UKS iter   6:  -167.34847320027131   -3.04058e-01   1.94900e-02 DIIS
   @DF-UKS iter   7:  -167.81126798518892   -4.62795e-01   3.34692e-03 DIIS
   @DF-UKS iter   8:  -167.82876923286653   -1.75012e-02   2.10745e-03 DIIS
   @DF-UKS iter   9:  -167.83389156061293   -5.12233e-03   7.58094e-04 DIIS
   @DF-UKS iter  10:  -167.83499952961500   -1.10797e-03   3.24123e-04 DIIS
   @DF-UKS iter  11:  -167.83538091907579   -3.81389e-04   1.22042e-04 DIIS
   @DF-UKS iter  12:  -167.83545675808017   -7.58390e-05   4.47673e-05 DIIS
   @DF-UKS iter  13:  -167.83547115056655   -1.43925e-05   1.79385e-05 DIIS
   @DF-UKS iter  14:  -167.83547229519695   -1.14463e-06   3.56470e-06 DIIS
   @DF-UKS iter  15:  -167.83547236228702   -6.70901e-08   8.19635e-07 DIIS
   @DF-UKS iter  16:  -167.83547236570649   -3.41947e-09   1.95096e-07 DIIS
   @DF-UKS iter  17:  -167.83547236596053   -2.54033e-10   8.89066e-08 DIIS
   @DF-UKS iter  18:  -167.83547236602914   -6.86100e-11   3.71062e-08 DIIS
   @DF-UKS iter  19:  -167.83547236604181   -1.26761e-11   1.59242e-08 DIIS
   @DF-UKS iter  20:  -167.83547236604301   -1.19371e-12   3.43547e-09 DIIS

  ==> Post-Iterations <==

   @Spin Contamination Metric:   2.265474902E-02
   @S^2 Expected:                7.500000000E-01
   @S^2 Observed:                7.726547490E-01
   @S   Expected:                5.000000000E-01
   @S   Observed:                5.000000000E-01

    Orbital Energies [Eh]
    ---------------------

    Alpha Occupied:                                                       

       1A1   -19.786216     2A1   -14.865488     3A1   -10.731441  
       4A1    -1.311129     5A1    -1.087413     6A1    -0.659990  
       1B2    -0.606972     1B1    -0.584343     7A1    -0.518820  
       2B2    -0.436051     2B1    -0.393749  

    Alpha Virtual:                                                        

       8A1     0.073155     3B2     0.080942     3B1     0.101327  
       9A1     0.196469     4B2     0.224111     4B1     0.230887  
      10A1     0.350217    11A1     0.376366     5B2     0.418630  
       5B1     0.433321    12A1     0.440407     6B2     0.593612  
       6B1     0.604430    13A1     0.630038     1A2     0.631000  
      14A1     0.644086    15A1     0.842401     7B2     0.996389  
      16A1     1.012216     7B1     1.017153     2A2     1.157273  
      17A1     1.157895    18A1     1.294500    19A1     1.389352  
       8B2     1.407992     8B1     1.414986    20A1     1.624252  
       3A2     1.626544     9B2     1.626777    21A1     1.638673  
       9B1     1.648914    10B2     2.004429    10B1     2.024002  
      22A1     2.059909    23A1     2.238053    11B2     2.407706  
      11B1     2.437798    24A1     2.503223    12B2     2.648021  
      12B1     2.648022    13B2     2.805337    13B1     2.822421  
      25A1     2.866279     4A2     2.866381     5A2     2.949954  
      26A1     2.949980    27A1     3.065572    14B2     3.146002  
      14B1     3.168640    28A1     3.274230    29A1     3.584331  
      15B2     3.655677    15B1     3.672420    16B2     3.980988  
      16B1     3.980995    30A1     4.332285     6A2     4.386135  
      31A1     4.389947    32A1     4.596470     7A2     4.597790  
      33A1     4.683507    17B2     5.043775    17B1     5.073714  
      18B2     5.194592    18B1     5.194602    19B2     5.408273  
      19B1     5.434997    34A1     5.476025     8A2     5.717436  
      35A1     5.717718    36A1     5.760217     9A2     6.366813  
      37A1     6.366835    20B2     6.629059    20B1     6.647264  
      21B2     6.902264    21B1     6.922090    38A1     7.134577  
      39A1     7.356905    40A1    23.976104    41A1    32.374749  
      42A1    44.567421  

    Beta Occupied:                                                        

       1A1   -19.775153     2A1   -14.849022     3A1   -10.734404  
       4A1    -1.289000     5A1    -1.032757     6A1    -0.644673  
       1B1    -0.578679     1B2    -0.535446     7A1    -0.489492  
       2B1    -0.371329  

    Beta Virtual:                                                         

       2B2    -0.155121     8A1     0.076690     3B1     0.106438  
       3B2     0.146243     9A1     0.199974     4B2     0.225754  
       4B1     0.229770    10A1     0.355595    11A1     0.382614  
       5B1     0.439170    12A1     0.443173     5B2     0.451139  
       6B1     0.607874     6B2     0.616556     1A2     0.635997  
      13A1     0.636201    14A1     0.651287    15A1     0.848506  
       7B1     1.021154     7B2     1.026375    16A1     1.027798  
       2A2     1.191254    17A1     1.191342    18A1     1.300573  
      19A1     1.391334     8B2     1.403750     8B1     1.410535  
      20A1     1.643331     3A2     1.644690    21A1     1.645027  
       9B1     1.654929     9B2     1.657993    10B1     2.029680  
      10B2     2.034305    22A1     2.068067    23A1     2.260229  
      11B1     2.450697    11B2     2.461715    24A1     2.510709  
      12B2     2.645994    12B1     2.646008    13B1     2.824714  
      13B2     2.827851     4A2     2.876116    25A1     2.876134  
       5A2     2.944581    26A1     2.944590    27A1     3.076878  
      14B1     3.174020    14B2     3.175732    28A1     3.280598  
      29A1     3.592596    15B2     3.670684    15B1     3.674533  
      16B2     4.021716    16B1     4.023210    30A1     4.352024  
      31A1     4.420173     6A2     4.421753    32A1     4.645639  
       7A2     4.648097    33A1     4.698035    17B1     5.085031  
      17B2     5.085402    18B2     5.212516    18B1     5.212593  
      19B2     5.440705    19B1     5.443338    34A1     5.491290  
      35A1     5.730687     8A2     5.730843    36A1     5.772577  
      37A1     6.394962     9A2     6.395418    20B2     6.645683  
      20B1     6.650361    21B2     6.925824    21B1     6.926765  
      38A1     7.145541    39A1     7.363384    40A1    23.974301  
      41A1    32.390262    42A1    44.576074  

    Final Occupation by Irrep:
             A1    A2    B1    B2 
    DOCC [     7,    0,    2,    1 ]
    SOCC [     0,    0,    0,    1 ]

  Energy converged.

  @DF-UKS Final Energy:  -167.83547236604301

   => Energetics <=

    Nuclear Repulsion Energy =             52.7872468185525037
    One-Electron Energy =                -332.2366345851856408
    Two-Electron Energy =                 122.2460741588401305
    DFT Exchange-Correlation Energy =     -10.6317853782500364
    Empirical Dispersion Energy =          -0.0003733800000000
    VV10 Nonlocal Energy =                  0.0000000000000000
    Total Energy =                       -167.8354723660430636


  UHF NO Occupations:
  HONO-2 :    2 B1 1.9990670
  HONO-1 :    1 B2 1.9905233
  HONO-0 :    2 B2 1.0000000
  LUNO+0 :    3 B2 0.0094767
  LUNO+1 :    3 B1 0.0009330
  LUNO+2 :    8 A1 0.0006676
  LUNO+3 :    9 A1 0.0001354



Properties will be evaluated at   0.000000,   0.000000,   0.000000 [a0]

Properties computed using the SCF density matrix

  Nuclear Dipole Moment: [e a0]
     X:     0.0000      Y:     0.0000      Z:    -0.0090

  Electronic Dipole Moment: [e a0]
     X:     0.0000      Y:     0.0000      Z:    -0.2909

  Dipole Moment: [e a0]
     X:     0.0000      Y:     0.0000      Z:    -0.2999     Total:     0.2999

  Dipole Moment: [D]
     X:     0.0000      Y:     0.0000      Z:    -0.7622     Total:     0.7622


*** tstop() called on linux-en55 at Sun Nov 25 06:13:19 2018
Module time:
	user time   =      13.69 seconds =       0.23 minutes
	system time =       0.03 seconds =       0.00 minutes
	total time  =         13 seconds =       0.22 minutes
Total time:
	user time   =      55.50 seconds =       0.93 minutes
	system time =       0.13 seconds =       0.00 minutes
	total time  =         55 seconds =       0.92 minutes

*** tstart() called on linux-en55
*** at Sun Nov 25 06:13:19 2018

   => Loading Basis Set <=

    Name: (DEF2-TZVP AUX)
    Role: RIFIT
    Keyword: DF_BASIS_MP2
    atoms 1 entry C          line   179 file /home/yuant/psi4conda/share/psi4/basis/def2-tzvp-ri.gbs 
    atoms 2 entry N          line   226 file /home/yuant/psi4conda/share/psi4/basis/def2-tzvp-ri.gbs 
    atoms 3 entry O          line   273 file /home/yuant/psi4conda/share/psi4/basis/def2-tzvp-ri.gbs 

	 --------------------------------------------------------
	                          DF-MP2                         
	      2nd-Order Density-Fitted Moller-Plesset Theory     
	              UMP2 Wavefunction,   1 Threads             
	                                                         
	        Rob Parrish, Justin Turney, Andy Simmonett,      
	           Ed Hohenstein, and C. David Sherrill          
	 --------------------------------------------------------

	 --------------------------------------------------------
	                 NBF =    93, NAUX =   228
	 --------------------------------------------------------
	   CLASS    FOCC     OCC    AOCC    AVIR     VIR    FVIR
	   ALPHA       0      11      11      82      82       0
	    BETA       0      10      10      83      83       0
	 --------------------------------------------------------

	-----------------------------------------------------------
	 ==================> DF-MP2 Energies <==================== 
	-----------------------------------------------------------
	 Reference Energy          =    -167.8354723660430068 [Eh]
	 Singles Energy            =      -0.0000000000000254 [Eh]
	 Same-Spin Energy          =      -0.1842283811871797 [Eh]
	 Opposite-Spin Energy      =      -0.5371282116057292 [Eh]
	 Correlation Energy        =      -0.7213565927929343 [Eh]
	 Total Energy              =    -168.5568289588359505 [Eh]
	-----------------------------------------------------------
	 ================> DF-SCS-MP2 Energies <================== 
	-----------------------------------------------------------
	 SCS Same-Spin Scale       =       0.0000000000000000 [-]
	 SCS Opposite-Spin Scale   =       0.2690000000000000 [-]
	 SCS Same-Spin Energy      =      -0.0000000000000000 [Eh]
	 SCS Opposite-Spin Energy  =      -0.1444874889219412 [Eh]
	 SCS Correlation Energy    =      -0.1444874889219666 [Eh]
	 SCS Total Energy          =    -167.9799598549649602 [Eh]
	-----------------------------------------------------------



    PWPB95-D3BJ Energy Summary
    -------------------------
    DFT Reference Energy                  =  -167.8354723660430068
    Scaled MP2 Correlation                =    -0.1444874889219666
    @Final double-hybrid DFT total energy =  -167.9799598549649602


*** tstop() called on linux-en55 at Sun Nov 25 06:13:20 2018
Module time:
	user time   =       0.20 seconds =       0.00 minutes
	system time =       0.00 seconds =       0.00 minutes
	total time  =          1 seconds =       0.02 minutes
Total time:
	user time   =      55.70 seconds =       0.93 minutes
	system time =       0.13 seconds =       0.00 minutes
	total time  =         56 seconds =       0.93 minutes

  //>>>>>>>>>>>>>>>>>>>>>>>>>>>>>>>>>>>//
  //    Loading displacement 5 of 5    //
  //<<<<<<<<<<<<<<<<<<<<<<<<<<<<<<<<<<<//

*** tstart() called on linux-en55
*** at Sun Nov 25 06:13:20 2018

   => Loading Basis Set <=

    Name: DEF2-TZVP
    Role: ORBITAL
    Keyword: BASIS
    atoms 1 entry C          line   123 file /home/yuant/psi4conda/share/psi4/basis/def2-tzvp.gbs 
    atoms 2 entry N          line   156 file /home/yuant/psi4conda/share/psi4/basis/def2-tzvp.gbs 
    atoms 3 entry O          line   189 file /home/yuant/psi4conda/share/psi4/basis/def2-tzvp.gbs 


         ---------------------------------------------------------
                                   SCF
            by Justin Turney, Rob Parrish, Andy Simmonett
                             and Daniel Smith
                              UKS Reference
                        1 Threads,   1907 MiB Core
         ---------------------------------------------------------

  ==> Geometry <==

    Molecular point group: c2v
    Full point group: C_inf_v

    Geometry (in Angstrom), charge = 0, multiplicity = 2:

       Center              X                  Y                   Z               Mass       
    ------------   -----------------  -----------------  -----------------  -----------------
         C            0.000000000000     0.000000000000     0.031201530587    12.000000000000
         N            0.000000000000     0.000000000000     1.251201530587    14.003074004780
         O            0.000000000000     0.000000000000    -1.118798469413    15.994914619560

  Running in c2v symmetry.

  Rotational constants: A = ************  B =      0.40181  C =      0.40181 [cm^-1]
  Rotational constants: A = ************  B =  12045.86496  C =  12045.86496 [MHz]
  Nuclear repulsion =   52.808737832140011

  Charge       = 0
  Multiplicity = 2
  Electrons    = 21
  Nalpha       = 11
  Nbeta        = 10

  ==> Algorithm <==

  SCF Algorithm Type is DF.
  DIIS enabled.
  MOM disabled.
  Fractional occupation disabled.
  Guess Type is GWH.
  Energy threshold   = 1.00e-08
  Density threshold  = 1.00e-08
  Integral threshold = 0.00e+00

  ==> Primary Basis <==

  Basis Set: DEF2-TZVP
    Blend: DEF2-TZVP
    Number of shells: 33
    Number of basis function: 93
    Number of Cartesian functions: 108
    Spherical Harmonics?: true
    Max angular momentum: 3

  ==> DFT Potential <==

   => Composite Functional: PWPB95-D3BJ <= 

    PWPB95 SOS Double Hybrid XC Functional

    L. Goerigk, S.Grimme, J.Chem. Theory Compt. 7, 291-309, 2011 


    Deriv               =              1
    GGA                 =           TRUE
    Meta                =           TRUE

    Exchange Hybrid     =           TRUE
    MP2 Hybrid          =           TRUE

   => Exchange Functionals <=

    0.5000    XC_GGA_X_PW91

   => Exact (HF) Exchange <=

    0.5000               HF 

   => Correlation Functionals <=

    0.7310   XC_MGGA_C_BC95

   => MP2 Correlation <=

    MP2 SCS Hybrid      =           TRUE
    MP2 OS Alpha        =       0.269000
    MP2 SS Alpha        =       0.000000

   => Molecular Quadrature <=

    Radial Scheme       =       TREUTLER
    Pruning Scheme      =           FLAT
    Nuclear Scheme      =       TREUTLER

    BS radius alpha     =              1
    Pruning alpha       =              1
    Radial Points       =             75
    Spherical Points    =            302
    Total Points        =          65923
    Total Blocks        =            569
    Max Points          =            255
    Max Functions       =             92

   => -D3BJ: Empirical Dispersion <=

    Grimme's -D3 (BJ-damping) Dispersion Correction
    Grimme S.; Ehrlich S.; Goerigk L. (2011), J. Comput. Chem., 32: 1456
    Parametrisation from: 
    L. Goerigk, S. Grimme, Phys. Chem. Chem. Phys. 13, 6670-6688, 2011


        S6 =   8.200000E-01
        S8 =   2.904000E-01
        A1 =   0.000000E+00
        A2 =   7.314100E+00

   => Loading Basis Set <=

    Name: (DEF2-TZVP AUX)
    Role: JKFIT
    Keyword: DF_BASIS_SCF
    atoms 1 entry C          line   203 file /home/yuant/psi4conda/share/psi4/basis/def2-tzvp-jkfit.gbs 
    atoms 2 entry N          line   263 file /home/yuant/psi4conda/share/psi4/basis/def2-tzvp-jkfit.gbs 
    atoms 3 entry O          line   323 file /home/yuant/psi4conda/share/psi4/basis/def2-tzvp-jkfit.gbs 

  ==> Pre-Iterations <==

   -------------------------------------------------------
    Irrep   Nso     Nmo     Nalpha   Nbeta   Ndocc  Nsocc
   -------------------------------------------------------
     A1        42      42       0       0       0       0
     A2         9       9       0       0       0       0
     B1        21      21       0       0       0       0
     B2        21      21       0       0       0       0
   -------------------------------------------------------
    Total      93      93      11      10      10       1
   -------------------------------------------------------

  ==> Integral Setup <==

  ==> MemDFJK: Density-Fitted J/K Matrices <==

    J tasked:                   Yes
    K tasked:                   Yes
    wK tasked:                   No
    OpenMP threads:               1
    Memory (MB):               1430
    Algorithm:                 Core
    Schwarz Cutoff:           1E-12
    Mask sparsity (%):       0.5319
    Fitting Condition:        1E-12

   => Auxiliary Basis Set <=

  Basis Set: (DEF2-TZVP AUX)
    Blend: DEF2-TZVP-JKFIT
    Number of shells: 75
    Number of basis function: 229
    Number of Cartesian functions: 275
    Spherical Harmonics?: true
    Max angular momentum: 4

  Minimum eigenvalue in the overlap matrix is 2.5096215792E-04.
  Using Symmetric Orthogonalization.

  SCF Guess: Generalized Wolfsberg-Helmholtz.

  ==> Iterations <==

                           Total Energy        Delta E     RMS |[F,P]|

    Occupation by irrep:
             A1    A2    B1    B2 
    DOCC [     7,    0,    1,    2 ]
    SOCC [     0,    0,    1,    0 ]

   @DF-UKS iter   1:  -155.87065246012457   -1.55871e+02   3.45184e-01 
    Occupation by irrep:
             A1    A2    B1    B2 
    DOCC [     6,    0,    2,    2 ]
    SOCC [     1,    0,    0,    0 ]

   @DF-UKS iter   2:  -155.46352984194158    4.07123e-01   7.20434e-02 DIIS
   @DF-UKS iter   3:  -144.16428637381131    1.12992e+01   1.24825e-01 DIIS
    Occupation by irrep:
             A1    A2    B1    B2 
    DOCC [     7,    0,    1,    2 ]
    SOCC [     0,    0,    1,    0 ]

   @DF-UKS iter   4:  -160.24072024545899   -1.60764e+01   6.76869e-02 DIIS
   @DF-UKS iter   5:  -167.04547907366685   -6.80476e+00   2.70957e-02 DIIS
   @DF-UKS iter   6:  -167.34968271055669   -3.04204e-01   1.94665e-02 DIIS
   @DF-UKS iter   7:  -167.81121000272964   -4.61527e-01   3.35300e-03 DIIS
   @DF-UKS iter   8:  -167.82877811890569   -1.75681e-02   2.10466e-03 DIIS
   @DF-UKS iter   9:  -167.83388778361876   -5.10966e-03   7.56721e-04 DIIS
   @DF-UKS iter  10:  -167.83499147102793   -1.10369e-03   3.24310e-04 DIIS
   @DF-UKS iter  11:  -167.83537243029738   -3.80959e-04   1.21779e-04 DIIS
   @DF-UKS iter  12:  -167.83544785921504   -7.54289e-05   4.45629e-05 DIIS
   @DF-UKS iter  13:  -167.83546215109664   -1.42919e-05   1.78511e-05 DIIS
   @DF-UKS iter  14:  -167.83546328352998   -1.13243e-06   3.55176e-06 DIIS
   @DF-UKS iter  15:  -167.83546335007281   -6.65428e-08   8.15725e-07 DIIS
[...]

   => Exact (HF) Exchange <=

    0.5000               HF 

   => Correlation Functionals <=

    0.7310   XC_MGGA_C_BC95

   => MP2 Correlation <=

    MP2 SCS Hybrid      =           TRUE
    MP2 OS Alpha        =       0.269000
    MP2 SS Alpha        =       0.000000

   => Molecular Quadrature <=

    Radial Scheme       =       TREUTLER
    Pruning Scheme      =           FLAT
    Nuclear Scheme      =       TREUTLER

    BS radius alpha     =              1
    Pruning alpha       =              1
    Radial Points       =             75
    Spherical Points    =            302
    Total Points        =          65931
    Total Blocks        =            569
    Max Points          =            255
    Max Functions       =             92

   => -D3BJ: Empirical Dispersion <=

    Grimme's -D3 (BJ-damping) Dispersion Correction
    Grimme S.; Ehrlich S.; Goerigk L. (2011), J. Comput. Chem., 32: 1456
    Parametrisation from: 
    L. Goerigk, S. Grimme, Phys. Chem. Chem. Phys. 13, 6670-6688, 2011


        S6 =   8.200000E-01
        S8 =   2.904000E-01
        A1 =   0.000000E+00
        A2 =   7.314100E+00

   => Loading Basis Set <=

    Name: (DEF2-TZVP AUX)
    Role: JKFIT
    Keyword: DF_BASIS_SCF
    atoms 1 entry C          line   203 file /home/yuant/psi4conda/share/psi4/basis/def2-tzvp-jkfit.gbs 
    atoms 2 entry N          line   263 file /home/yuant/psi4conda/share/psi4/basis/def2-tzvp-jkfit.gbs 
    atoms 3 entry O          line   323 file /home/yuant/psi4conda/share/psi4/basis/def2-tzvp-jkfit.gbs 

  Reading orbitals from file 180, no projection.

  ==> Pre-Iterations <==

   -------------------------------------------------------
    Irrep   Nso     Nmo     Nalpha   Nbeta   Ndocc  Nsocc
   -------------------------------------------------------
     A1        42      42       0       0       0       0
     A2         9       9       0       0       0       0
     B1        21      21       0       0       0       0
     B2        21      21       0       0       0       0
   -------------------------------------------------------
    Total      93      93      11      10      10       1
   -------------------------------------------------------

  ==> Integral Setup <==

  ==> MemDFJK: Density-Fitted J/K Matrices <==

    J tasked:                   Yes
    K tasked:                   Yes
    wK tasked:                   No
    OpenMP threads:               1
    Memory (MB):               1430
    Algorithm:                 Core
    Schwarz Cutoff:           1E-12
    Mask sparsity (%):       0.6012
    Fitting Condition:        1E-12

   => Auxiliary Basis Set <=

  Basis Set: (DEF2-TZVP AUX)
    Blend: DEF2-TZVP-JKFIT
    Number of shells: 75
    Number of basis function: 229
    Number of Cartesian functions: 275
    Spherical Harmonics?: true
    Max angular momentum: 4

  Minimum eigenvalue in the overlap matrix is 2.6978813268E-04.
  Using Symmetric Orthogonalization.

  SCF Guess: Orbitals guess was supplied from a previous computation.

  ==> Iterations <==

                           Total Energy        Delta E     RMS |[F,P]|

   @DF-UKS iter   0:  -167.83638930875242   -1.67836e+02   4.56484e-05 
   @DF-UKS iter   1:  -167.83524730387040    1.14200e-03   9.96233e-06 
   @DF-UKS iter   2:  -167.83524730911185   -5.24145e-09   1.07048e-05 DIIS
   @DF-UKS iter   3:  -167.83524743631497   -1.27203e-07   2.09480e-06 DIIS
   @DF-UKS iter   4:  -167.83524744091625   -4.60128e-09   8.22443e-07 DIIS
   @DF-UKS iter   5:  -167.83524744162960   -7.13356e-10   3.48202e-07 DIIS
   @DF-UKS iter   6:  -167.83524744179928   -1.69678e-10   7.65230e-08 DIIS
   @DF-UKS iter   7:  -167.83524744184413   -4.48495e-11   3.34594e-08 DIIS
   @DF-UKS iter   8:  -167.83524744185601   -1.18803e-11   1.14224e-08 DIIS
   @DF-UKS iter   9:  -167.83524744185721   -1.19371e-12   3.47012e-09 DIIS

  ==> Post-Iterations <==

   @Spin Contamination Metric:   2.632644959E-02
   @S^2 Expected:                7.500000000E-01
   @S^2 Observed:                7.763264496E-01
   @S   Expected:                5.000000000E-01
   @S   Observed:                5.000000000E-01

    Orbital Energies [Eh]
    ---------------------

    Alpha Occupied:                                                       

       1A1   -19.788713     2A1   -14.869668     3A1   -10.734835  
       4A1    -1.299741     5A1    -1.087047     6A1    -0.658714  
       1B1    -0.601183     1B2    -0.577664     7A1    -0.520562  
       2B1    -0.437951     2B2    -0.395895  

    Alpha Virtual:                                                        

       8A1     0.071823     3B1     0.073896     3B2     0.094049  
       9A1     0.196584     4B1     0.225694     4B2     0.232337  
      10A1     0.345542    11A1     0.369088     5B1     0.418776  
       5B2     0.433376    12A1     0.439376     6B1     0.591433  
       6B2     0.602481    13A1     0.630819     1A2     0.632054  
      14A1     0.642414    15A1     0.842097    16A1     0.983754  
       7B1     0.986634     7B2     1.007027     2A2     1.156533  
      17A1     1.157042    18A1     1.284359    19A1     1.390492  
       8B1     1.414282     8B2     1.420901    20A1     1.618327  
       3A2     1.619457     9B1     1.619698     9B2     1.641559  
      21A1     1.644172    10B1     2.002777    10B2     2.022922  
      22A1     2.049304    23A1     2.234585    11B1     2.407769  
      11B2     2.437554    24A1     2.477581    12B1     2.649569  
      12B2     2.649569    13B1     2.802765    13B2     2.819624  
      25A1     2.860328     4A2     2.860425     5A2     2.948140  
      26A1     2.948163    27A1     3.059495    14B1     3.114961  
      14B2     3.137844    28A1     3.262213    29A1     3.549510  
      15B1     3.643293    15B2     3.660103    16B1     3.978539  
      16B2     3.978545    30A1     4.349536     6A2     4.377401  
      31A1     4.383973    32A1     4.592473     7A2     4.594619  
      33A1     4.641325    17B1     5.030352    17B2     5.060082  
      18B1     5.192552    18B2     5.192561    19B1     5.400062  
      19B2     5.426050    34A1     5.458007     8A2     5.679263  
      35A1     5.679536    36A1     5.718986     9A2     6.360820  
      37A1     6.360826    20B1     6.603484    20B2     6.622563  
      21B1     6.892796    21B2     6.913528    38A1     7.062659  
      39A1     7.297250    40A1    23.878752    41A1    32.369847  
      42A1    44.526634  

    Beta Occupied:                                                        

       1A1   -19.776845     2A1   -14.853323     3A1   -10.738080  
       4A1    -1.275622     5A1    -1.033160     6A1    -0.642696  
       1B2    -0.571633     1B1    -0.526176     7A1    -0.491742  
       2B2    -0.373349  

    Beta Virtual:                                                         

       2B1    -0.157956     8A1     0.075340     3B2     0.098932  
       3B1     0.139089     9A1     0.200161     4B1     0.227123  
       4B2     0.231122    10A1     0.351303    11A1     0.374364  
       5B2     0.439311    12A1     0.442092     5B1     0.451206  
       6B2     0.606034     6B1     0.614963     1A2     0.636348  
      13A1     0.636542    14A1     0.649205    15A1     0.848417  
      16A1     0.999208     7B2     1.010798     7B1     1.016028  
       2A2     1.190119    17A1     1.190164    18A1     1.289866  
      19A1     1.392390     8B1     1.409129     8B2     1.415976  
       3A2     1.638607    20A1     1.638647     9B2     1.647544  
      21A1     1.650264     9B1     1.650512    10B2     2.028958  
      10B1     2.033929    22A1     2.057574    23A1     2.256543  
      11B2     2.450461    11B1     2.461444    24A1     2.485134  
      12B1     2.646619    12B2     2.646633    13B2     2.821685  
      13B1     2.824808     4A2     2.870139    25A1     2.870165  
      26A1     2.940971     5A2     2.940989    27A1     3.071210  
      14B2     3.143285    14B1     3.145444    28A1     3.268584  
      29A1     3.557291    15B1     3.658253    15B2     3.662133  
      16B1     4.018740    16B2     4.020171    30A1     4.371944  
      31A1     4.411037     6A2     4.412462    32A1     4.641965  
       7A2     4.644532    33A1     4.655123    17B2     5.071657  
      17B1     5.072344    18B1     5.211825    18B2     5.211918  
      19B1     5.430941    19B2     5.433899    34A1     5.473192  
      35A1     5.693159     8A2     5.693324    36A1     5.731479  
      37A1     6.391161     9A2     6.391686    20B1     6.621561  
      20B2     6.626057    21B1     6.917489    21B2     6.918467  
      38A1     7.073567    39A1     7.304819    40A1    23.876565  
      41A1    32.385203    42A1    44.535926  

    Final Occupation by Irrep:
             A1    A2    B1    B2 
    DOCC [     7,    0,    1,    2 ]
    SOCC [     0,    0,    1,    0 ]

  Energy converged.

  @DF-UKS Final Energy:  -167.83524744185721

   => Energetics <=

    Nuclear Repulsion Energy =             52.2149998778478377
    One-Electron Energy =                -331.1272524319027752
    Two-Electron Energy =                 121.6967983108100100
    DFT Exchange-Correlation Energy =     -10.6194200886122800
    Empirical Dispersion Energy =          -0.0003731100000000
    VV10 Nonlocal Energy =                  0.0000000000000000
    Total Energy =                       -167.8352474418572058


  UHF NO Occupations:
  HONO-2 :    2 B2 1.9989898
  HONO-1 :    1 B1 1.9887672
  HONO-0 :    2 B1 1.0000000
  LUNO+0 :    3 B1 0.0112328
  LUNO+1 :    3 B2 0.0010102
  LUNO+2 :    8 A1 0.0006495
  LUNO+3 :    9 A1 0.0001534



Properties will be evaluated at   0.000000,   0.000000,   0.000000 [a0]

Properties computed using the SCF density matrix

  Nuclear Dipole Moment: [e a0]
     X:     0.0000      Y:     0.0000      Z:    -0.0091

  Electronic Dipole Moment: [e a0]
     X:     0.0000      Y:     0.0000      Z:    -0.2605

  Dipole Moment: [e a0]
     X:     0.0000      Y:     0.0000      Z:    -0.2696     Total:     0.2696

  Dipole Moment: [D]
     X:     0.0000      Y:     0.0000      Z:    -0.6852     Total:     0.6852


*** tstop() called on linux-en55 at Sun Nov 25 06:16:08 2018
Module time:
	user time   =       7.11 seconds =       0.12 minutes
	system time =       0.02 seconds =       0.00 minutes
	total time  =          7 seconds =       0.12 minutes
Total time:
	user time   =     222.43 seconds =       3.71 minutes
	system time =       0.64 seconds =       0.01 minutes
	total time  =        224 seconds =       3.73 minutes

*** tstart() called on linux-en55
*** at Sun Nov 25 06:16:08 2018

   => Loading Basis Set <=

    Name: (DEF2-TZVP AUX)
    Role: RIFIT
    Keyword: DF_BASIS_MP2
    atoms 1 entry C          line   179 file /home/yuant/psi4conda/share/psi4/basis/def2-tzvp-ri.gbs 
    atoms 2 entry N          line   226 file /home/yuant/psi4conda/share/psi4/basis/def2-tzvp-ri.gbs 
    atoms 3 entry O          line   273 file /home/yuant/psi4conda/share/psi4/basis/def2-tzvp-ri.gbs 

	 --------------------------------------------------------
	                          DF-MP2                         
	      2nd-Order Density-Fitted Moller-Plesset Theory     
	              UMP2 Wavefunction,   1 Threads             
	                                                         
	        Rob Parrish, Justin Turney, Andy Simmonett,      
	           Ed Hohenstein, and C. David Sherrill          
	 --------------------------------------------------------

	 --------------------------------------------------------
	                 NBF =    93, NAUX =   228
	 --------------------------------------------------------
	   CLASS    FOCC     OCC    AOCC    AVIR     VIR    FVIR
	   ALPHA       0      11      11      82      82       0
	    BETA       0      10      10      83      83       0
	 --------------------------------------------------------

	-----------------------------------------------------------
	 ==================> DF-MP2 Energies <==================== 
	-----------------------------------------------------------
	 Reference Energy          =    -167.8352474418572058 [Eh]
	 Singles Energy            =      -0.0000000000000630 [Eh]
	 Same-Spin Energy          =      -0.1860123746222269 [Eh]
	 Opposite-Spin Energy      =      -0.5409881942676968 [Eh]
	 Correlation Energy        =      -0.7270005688899868 [Eh]
	 Total Energy              =    -168.5622480107471972 [Eh]
	-----------------------------------------------------------
	 ================> DF-SCS-MP2 Energies <================== 
	-----------------------------------------------------------
	 SCS Same-Spin Scale       =       0.0000000000000000 [-]
	 SCS Opposite-Spin Scale   =       0.2690000000000000 [-]
	 SCS Same-Spin Energy      =      -0.0000000000000000 [Eh]
	 SCS Opposite-Spin Energy  =      -0.1455258242580105 [Eh]
	 SCS Correlation Energy    =      -0.1455258242580735 [Eh]
	 SCS Total Energy          =    -167.9807732661152784 [Eh]
	-----------------------------------------------------------



    PWPB95-D3BJ Energy Summary
    -------------------------
    DFT Reference Energy                  =  -167.8352474418572058
    Scaled MP2 Correlation                =    -0.1455258242580735
    @Final double-hybrid DFT total energy =  -167.9807732661152784


*** tstop() called on linux-en55 at Sun Nov 25 06:16:08 2018
Module time:
	user time   =       0.20 seconds =       0.00 minutes
	system time =       0.01 seconds =       0.00 minutes
	total time  =          0 seconds =       0.00 minutes
Total time:
	user time   =     222.63 seconds =       3.71 minutes
	system time =       0.65 seconds =       0.01 minutes
	total time  =        224 seconds =       3.73 minutes

-------------------------------------------------------------

  Computing gradient from energies (fd_1_0).
	Using 3-point formula.
	Energy without displacement: -167.9807732661
	Check energies below for precision!
	Forces are for mass-weighted, symmetry-adapted cartesians (in au).

	 Coord      Energy(-)        Energy(+)        Force
	    0   -167.9807712911  -167.9807713359    -0.0000044849
	    1   -167.9807724724  -167.9807724558     0.0000016592

	Gradient written.

-------------------------------------------------------------
  ## F-D gradient (Symmetry 0) ##
  Irrep: 1 Size: 3 x 3

                 1                   2                   3

    1     0.00000000000000     0.00000000000000    -0.00001313024285
    2     0.00000000000000     0.00000000000000     0.00001066283562
    3     0.00000000000000     0.00000000000000     0.00000246740723




			-----------------------------------------
			 OPTKING 2.0: for geometry optimizations 
			  - R.A. King,  Bethel University        
			-----------------------------------------

	Previous internal coordinate definitions found.
	---Fragment 1 Geometry and Gradient---
	 C           0.0000000000        0.0000000000        0.0720873053
	 N          -0.0000000000        0.0000000000        2.3846524721
	 O          -0.0000000000        0.0000000000       -2.1417752781
	             0.0000000000        0.0000000000       -0.0000131302
	             0.0000000000        0.0000000000        0.0000106628
	             0.0000000000        0.0000000000        0.0000024674

	---Fragment 1 Intrafragment Coordinates---
	 - Coordinate -           - BOHR/RAD -       - ANG/DEG -
	 R(1,2)           =         2.312565	       1.223757
	 R(1,3)           =         2.213863	       1.171526
	 L(2,1,3)         =         3.141593	     180.000000
	 l(2,1,3)         =         3.141593	     180.000000

	Current energy   :      -167.9807732661

	Energy change for the previous step:
		Projected    :        -0.0000002577
		Actual       :        -0.0000001302

	Performing BFGS update.
	Previous computed or guess Hessian on step 1.
	Steps to be used in Hessian update: 4 3
	Taking RFO optimization step.
	Going to follow RFO solution 1.
	Using RFO vector 1.
	Norm of target step-size    0.00002
	Projected energy change by RFO approximation:        -0.0000000002

	Back-transformation to cartesian coordinates...
	Successfully converged to displaced geometry.

	--- Internal Coordinate Step in ANG or DEG, aJ/ANG or AJ/DEG ---
	 ---------------------------------------------------------------------------
	   Coordinate                Previous        Force       Change         New 
	   ----------                --------       ------       ------       ------
	    1 R(1,2)          =      1.223757    -0.000088    -0.000008     1.223748
	    2 R(1,3)          =      1.171526     0.000020     0.000003     1.171528
	    3 L(2,1,3)        =    180.000000    -0.000000     0.000000   180.000000
	    4 l(2,1,3)        =    180.000000     0.000000     0.000000   180.000000
	 ---------------------------------------------------------------------------
	Successfully symmetrized geometry.

  ==> Convergence Check <==

  Measures of convergence in internal coordinates in au.
  Criteria marked as inactive (o), active & met (*), and active & unmet ( ).
  ---------------------------------------------------------------------------------------------
   Step     Total Energy     Delta E     MAX Force     RMS Force      MAX Disp      RMS Disp   
  ---------------------------------------------------------------------------------------------
    Convergence Criteria    1.00e-06 *    3.00e-04 *             o    1.20e-03 *             o
  ---------------------------------------------------------------------------------------------
      5    -167.98077327   -1.30e-07 *    1.07e-05 *    5.47e-06 o    1.58e-05 *    8.34e-06 o  ~
  ---------------------------------------------------------------------------------------------


  **** Optimization is complete! (in 5 steps) ****

  ==> Optimization Summary <==

  Measures of convergence in internal coordinates in au.
  --------------------------------------------------------------------------------------------------------------- ~
   Step         Total Energy             Delta E       MAX Force       RMS Force        MAX Disp        RMS Disp  ~
  --------------------------------------------------------------------------------------------------------------- ~
      1    -167.979914444465   -167.979914444465      0.04135087      0.02142505      0.03069670      0.01643650  ~
      2    -167.980726169649     -0.000811725183      0.00861260      0.00440882      0.00827414      0.00427963  ~
      3    -167.980770322245     -0.000044152597      0.00153791      0.00097523      0.00192241      0.00119183  ~
      4    -167.980773135943     -0.000002813698      0.00036622      0.00020620      0.00054963      0.00031246  ~
      5    -167.980773266115     -0.000000130172      0.00001066      0.00000547      0.00001578      0.00000834  ~
  --------------------------------------------------------------------------------------------------------------- ~

	Writing optimization data to binary file.
	Final energy is   -167.9807732661153
	Final (previous) structure:
	Cartesian Geometry (in Angstrom)
	    C     0.0000000000   0.0000000000   0.0381469590
	    N    -0.0000000000   0.0000000000   1.2619037387
	    O    -0.0000000000   0.0000000000  -1.1333786631
	Saving final (previous) structure.
	Removing binary optimization data file.
			--------------------------
			 OPTKING Finished Execution 
			--------------------------

    Final optimized geometry and variables:
    Molecular point group: c2v
    Full point group: C_inf_v

    Geometry (in Angstrom), charge = 0, multiplicity = 2:

    C            0.000000000000    -0.000000000000     0.038146959004
    N            0.000000000000     0.000000000000     1.261903738659
    O            0.000000000000     0.000000000000    -1.133378663067

	Removing binary optimization data file.
	Cleaning optimization helper files.

    Psi4 stopped on: Sunday, 25 November 2018 06:16AM
    Psi4 wall time for execution: 0:03:44.97

*** Psi4 exiting successfully. Buy a developer a beer!
