
    -----------------------------------------------------------------------
          Psi4: An Open-Source Ab Initio Electronic Structure Package
                               Psi4 1.2 release

                         Git: Rev {HEAD} 9d4a61c 


    R. M. Parrish, L. A. Burns, D. G. A. Smith, A. C. Simmonett,
    A. E. DePrince III, E. G. Hohenstein, U. Bozkaya, A. Yu. Sokolov,
    R. Di Remigio, R. M. Richard, J. F. Gonthier, A. M. James,
    H. R. McAlexander, A. Kumar, M. Saitow, X. Wang, B. P. Pritchard,
    P. Verma, H. F. Schaefer III, K. Patkowski, R. A. King, E. F. Valeev,
    F. A. Evangelista, J. M. Turney, T. D. Crawford, and C. D. Sherrill,
    J. Chem. Theory Comput. 13(7) pp 3185--3197 (2017).
    (doi: 10.1021/acs.jctc.7b00174)


                         Additional Contributions by
    P. Kraus, H. Kruse, M. H. Lechner, M. C. Schieber, and R. A. Shaw

    -----------------------------------------------------------------------


    Psi4 started on: Sunday, 25 November 2018 06:17AM

    Process ID: 7729
    Host:       linux-en55
    PSIDATADIR: /home/yuant/psi4conda/share/psi4
    Memory:     500.0 MiB
    Threads:    1
    
  ==> Input File <==

--------------------------------------------------------------------------
memory 2 GB

molecule {
  0 2
  C 0.0 0.0 0.0
  N 0.0 0.0 1.22
  O 0.0 0.0 -1.15
}

set {
  basis = def2-TZVP
  reference = UKS
}
optimize('DSD-PBEP86-D3BJ')--------------------------------------------------------------------------

  Memory set to   1.863 GiB by Python driver.
gradient() will perform gradient computation by finite difference of analytic energies.

-------------------------------------------------------------

  Using finite-differences of energies to determine gradients (fd_geoms_1_0).
	Generating geometries for use with 3-point formula.
	Displacement size will be 5.00e-03.
	Number of atoms is 3.
	Number of symmetric SALC's is 2.
	Number of displacements (including reference) is 5.
	Translations projected? 1. Rotations projected? 1.

-------------------------------------------------------------

  //>>>>>>>>>>>>>>>>>>>>>>>>>>>>>>>>>>>//
  //    Loading displacement 1 of 5    //
  //<<<<<<<<<<<<<<<<<<<<<<<<<<<<<<<<<<<//

*** tstart() called on linux-en55
*** at Sun Nov 25 06:17:55 2018

   => Loading Basis Set <=

    Name: DEF2-TZVP
    Role: ORBITAL
    Keyword: BASIS
    atoms 1 entry C          line   123 file /home/yuant/psi4conda/share/psi4/basis/def2-tzvp.gbs 
    atoms 2 entry N          line   156 file /home/yuant/psi4conda/share/psi4/basis/def2-tzvp.gbs 
    atoms 3 entry O          line   189 file /home/yuant/psi4conda/share/psi4/basis/def2-tzvp.gbs 


         ---------------------------------------------------------
                                   SCF
            by Justin Turney, Rob Parrish, Andy Simmonett
                             and Daniel Smith
                              UKS Reference
                        1 Threads,   1907 MiB Core
         ---------------------------------------------------------

  ==> Geometry <==

    Molecular point group: c2v
    Full point group: C_inf_v

    Geometry (in Angstrom), charge = 0, multiplicity = 2:

       Center              X                  Y                   Z               Mass       
    ------------   -----------------  -----------------  -----------------  -----------------
         C            0.000000000000     0.000000000000     0.030556006675    12.000000000000
         N            0.000000000000     0.000000000000     1.251459757465    14.003074004780
         O            0.000000000000     0.000000000000    -1.118540242535    15.994914619560

  Running in c2v symmetry.

  Rotational constants: A = ************  B =      0.40181  C =      0.40181 [cm^-1]
  Rotational constants: A = ************  B =  12046.05726  C =  12046.05726 [MHz]
  Nuclear repulsion =   52.812624097442878

  Charge       = 0
  Multiplicity = 2
  Electrons    = 21
  Nalpha       = 11
  Nbeta        = 10

  ==> Algorithm <==

  SCF Algorithm Type is DF.
  DIIS enabled.
  MOM disabled.
  Fractional occupation disabled.
  Guess Type is GWH.
  Energy threshold   = 1.00e-08
  Density threshold  = 1.00e-08
  Integral threshold = 0.00e+00

  ==> Primary Basis <==

  Basis Set: DEF2-TZVP
    Blend: DEF2-TZVP
    Number of shells: 33
    Number of basis function: 93
    Number of Cartesian functions: 108
    Spherical Harmonics?: true
    Max angular momentum: 3

  ==> DFT Potential <==

   => Composite Functional: DSD-PBEP86-D3BJ <= 

    DSD-PBEP86-D3BJ Dispersion-corrected SCS Double Hybrid XC Functional

    S. Kozuch, J.M.L. Martin, J. Comp. Chem., 34, 2327-2344, 2013


    Deriv               =              1
    GGA                 =           TRUE
    Meta                =          FALSE

    Exchange Hybrid     =           TRUE
    MP2 Hybrid          =           TRUE

   => Exchange Functionals <=

    0.3100     XC_GGA_X_PBE

   => Exact (HF) Exchange <=

    0.6900               HF 

   => Correlation Functionals <=

    0.4400     XC_GGA_C_P86

   => MP2 Correlation <=

    MP2 SCS Hybrid      =           TRUE
    MP2 OS Alpha        =       0.520000
    MP2 SS Alpha        =       0.220000

   => Molecular Quadrature <=

    Radial Scheme       =       TREUTLER
    Pruning Scheme      =           FLAT
    Nuclear Scheme      =       TREUTLER

    BS radius alpha     =              1
    Pruning alpha       =              1
    Radial Points       =             75
    Spherical Points    =            302
    Total Points        =          65923
    Total Blocks        =            568
    Max Points          =            256
    Max Functions       =             92

   => -D3BJ: Empirical Dispersion <=

    Grimme's -D3 (BJ-damping) Dispersion Correction
    Grimme S.; Ehrlich S.; Goerigk L. (2011), J. Comput. Chem., 32: 1456
    Parametrisation from: 
    S. Kozuch, J.M.L. Martin, J. Comp. Chem., 34, 2327-2344, 2013


        S6 =   4.800000E-01
        S8 =   0.000000E+00
        A1 =   0.000000E+00
        A2 =   5.600000E+00

   => Loading Basis Set <=

    Name: (DEF2-TZVP AUX)
    Role: JKFIT
    Keyword: DF_BASIS_SCF
    atoms 1 entry C          line   203 file /home/yuant/psi4conda/share/psi4/basis/def2-tzvp-jkfit.gbs 
    atoms 2 entry N          line   263 file /home/yuant/psi4conda/share/psi4/basis/def2-tzvp-jkfit.gbs 
    atoms 3 entry O          line   323 file /home/yuant/psi4conda/share/psi4/basis/def2-tzvp-jkfit.gbs 

  ==> Pre-Iterations <==

   -------------------------------------------------------
    Irrep   Nso     Nmo     Nalpha   Nbeta   Ndocc  Nsocc
   -------------------------------------------------------
     A1        42      42       0       0       0       0
     A2         9       9       0       0       0       0
     B1        21      21       0       0       0       0
     B2        21      21       0       0       0       0
   -------------------------------------------------------
    Total      93      93      11      10      10       1
   -------------------------------------------------------

  ==> Integral Setup <==

  ==> MemDFJK: Density-Fitted J/K Matrices <==

    J tasked:                   Yes
    K tasked:                   Yes
    wK tasked:                   No
    OpenMP threads:               1
    Memory (MB):               1430
    Algorithm:                 Core
    Schwarz Cutoff:           1E-12
    Mask sparsity (%):       0.5319
    Fitting Condition:        1E-12

   => Auxiliary Basis Set <=

  Basis Set: (DEF2-TZVP AUX)
    Blend: DEF2-TZVP-JKFIT
    Number of shells: 75
    Number of basis function: 229
    Number of Cartesian functions: 275
    Spherical Harmonics?: true
    Max angular momentum: 4

  Minimum eigenvalue in the overlap matrix is 2.5120688393E-04.
  Using Symmetric Orthogonalization.

  SCF Guess: Generalized Wolfsberg-Helmholtz.

  ==> Iterations <==

                           Total Energy        Delta E     RMS |[F,P]|

    Occupation by irrep:
             A1    A2    B1    B2 
    DOCC [     7,    0,    2,    1 ]
    SOCC [     0,    0,    0,    1 ]

   @DF-UKS iter   1:  -155.45579644965244   -1.55456e+02   3.47303e-01 
    Occupation by irrep:
             A1    A2    B1    B2 
    DOCC [     6,    0,    2,    2 ]
    SOCC [     1,    0,    0,    0 ]

   @DF-UKS iter   2:  -156.57411352672727   -1.11832e+00   6.99961e-02 DIIS
   @DF-UKS iter   3:  -146.32400000075444    1.02501e+01   1.19158e-01 DIIS
    Occupation by irrep:
             A1    A2    B1    B2 
    DOCC [     7,    0,    1,    2 ]
    SOCC [     0,    0,    1,    0 ]

   @DF-UKS iter   4:  -161.82923188218308   -1.55052e+01   6.22504e-02 DIIS
   @DF-UKS iter   5:  -166.93291096153965   -5.10368e+00   2.32107e-02 DIIS
   @DF-UKS iter   6:  -167.27165263283987   -3.38742e-01   1.37104e-02 DIIS
   @DF-UKS iter   7:  -167.50712726727863   -2.35475e-01   2.71245e-03 DIIS
   @DF-UKS iter   8:  -167.52167478557442   -1.45475e-02   1.33715e-03 DIIS
   @DF-UKS iter   9:  -167.52445051877754   -2.77573e-03   5.92020e-04 DIIS
   @DF-UKS iter  10:  -167.52599151625054   -1.54100e-03   2.46836e-04 DIIS
   @DF-UKS iter  11:  -167.52659894543382   -6.07429e-04   1.29789e-04 DIIS
   @DF-UKS iter  12:  -167.52676300156776   -1.64056e-04   6.33194e-05 DIIS
   @DF-UKS iter  13:  -167.52678975607978   -2.67545e-05   2.13371e-05 DIIS
   @DF-UKS iter  14:  -167.52679326406724   -3.50799e-06   6.44716e-06 DIIS
   @DF-UKS iter  15:  -167.52679348637261   -2.22305e-07   1.74482e-06 DIIS
   @DF-UKS iter  16:  -167.52679350601267   -1.96401e-08   8.39030e-07 DIIS
   @DF-UKS iter  17:  -167.52679351193999   -5.92732e-09   4.60674e-07 DIIS
   @DF-UKS iter  18:  -167.52679351420454   -2.26456e-09   2.45010e-07 DIIS
   @DF-UKS iter  19:  -167.52679351476573   -5.61187e-10   5.95386e-08 DIIS
   @DF-UKS iter  20:  -167.52679351479219   -2.64606e-11   1.09258e-08 DIIS
   @DF-UKS iter  21:  -167.52679351479276   -5.68434e-13   2.53135e-09 DIIS

  ==> Post-Iterations <==

   @Spin Contamination Metric:   3.829956284E-02
   @S^2 Expected:                7.500000000E-01
   @S^2 Observed:                7.882995628E-01
   @S   Expected:                5.000000000E-01
   @S   Observed:                5.000000000E-01

    Orbital Energies [Eh]
    ---------------------

    Alpha Occupied:                                                       

       1A1   -20.127835     2A1   -15.160819     3A1   -10.987210  
       4A1    -1.408926     5A1    -1.174930     6A1    -0.719586  
       1B1    -0.658423     1B2    -0.633049     7A1    -0.569916  
       2B1    -0.483991     2B2    -0.432415  

    Alpha Virtual:                                                        

       8A1     0.099949     3B1     0.123372     3B2     0.144228  
       9A1     0.220327     4B1     0.254410     4B2     0.260733  
      10A1     0.379942    11A1     0.429406     5B1     0.448835  
       5B2     0.466310    12A1     0.470684     6B1     0.630087  
       6B2     0.642930    13A1     0.670826     1A2     0.673660  
      14A1     0.680623    15A1     0.883556     7B1     1.051725  
       7B2     1.074735    16A1     1.091101     2A2     1.211537  
      17A1     1.212633    18A1     1.353783    19A1     1.445426  
       8B1     1.484904     8B2     1.490618    20A1     1.690207  
       9B1     1.691901     3A2     1.692579    21A1     1.706535  
       9B2     1.717107    10B1     2.081115    10B2     2.102896  
      22A1     2.138799    23A1     2.322675    11B1     2.500524  
      11B2     2.535834    24A1     2.588804    12B1     2.736586  
      12B2     2.736587    13B1     2.909963    13B2     2.928834  
      25A1     2.964320     4A2     2.964470     5A2     3.056061  
      26A1     3.056122    27A1     3.166596    14B1     3.256003  
      14B2     3.280983    28A1     3.376620    29A1     3.706149  
      15B1     3.765326    15B2     3.783034    16B2     4.093309  
      16B1     4.093317    30A1     4.448233     6A2     4.510710  
      31A1     4.514892    32A1     4.727298     7A2     4.728890  
      33A1     4.823998    17B1     5.179568    17B2     5.213324  
      18B1     5.322896    18B2     5.322911    19B1     5.547895  
      19B2     5.577723    34A1     5.622368     8A2     5.857637  
      35A1     5.857961    36A1     5.912620    37A1     6.522570  
       9A2     6.522596    20B1     6.783172    20B2     6.802793  
      21B1     7.061438    21B2     7.083569    38A1     7.311511  
      39A1     7.527847    40A1    24.284456    41A1    32.737529  
      42A1    44.996054  

    Beta Occupied:                                                        

       1A1   -20.114234     2A1   -15.140389     3A1   -10.992081  
       4A1    -1.381418     5A1    -1.103646     6A1    -0.701926  
       1B2    -0.628166     1B1    -0.567230     7A1    -0.536153  
       2B2    -0.405866  

    Beta Virtual:                                                         

       2B1    -0.099582     8A1     0.102710     3B2     0.147432  
       3B1     0.204284     9A1     0.224595     4B1     0.253731  
       4B2     0.257621    10A1     0.385620    11A1     0.434109  
       5B2     0.473141    12A1     0.473839     5B1     0.496019  
       6B2     0.646836     6B1     0.663440     1A2     0.677055  
      13A1     0.677469    14A1     0.687596    15A1     0.890764  
       7B2     1.077588     7B1     1.088563    16A1     1.109922  
       2A2     1.254011    17A1     1.256088    18A1     1.360060  
      19A1     1.446384     8B1     1.475064     8B2     1.483642  
      20A1     1.711138     3A2     1.715232    21A1     1.715718  
       9B2     1.722173     9B1     1.730346    10B2     2.108236  
      10B1     2.117539    22A1     2.147355    23A1     2.346690  
      11B2     2.549352    11B1     2.567507    24A1     2.596511  
      12B2     2.730219    12B1     2.730239    13B2     2.929792  
      13B1     2.936157     4A2     2.973335    25A1     2.973782  
       5A2     3.045467    26A1     3.045593    27A1     3.178738  
      14B2     3.285481    14B1     3.291259    28A1     3.382570  
      29A1     3.714443    15B1     3.780564    15B2     3.783730  
      16B2     4.139666    16B1     4.140393    30A1     4.467908  
       6A2     4.546530    31A1     4.548756     7A2     4.783432  
      32A1     4.786201    33A1     4.839022    17B2     5.221339  
      17B1     5.223350    18B2     5.344635    18B1     5.344683  
      19B1     5.580024    19B2     5.582830    34A1     5.638380  
       8A2     5.872827    35A1     5.873227    36A1     5.923063  
       9A2     6.556469    37A1     6.557229    20B1     6.801697  
      20B2     6.805393    21B2     7.087825    21B1     7.089646  
      38A1     7.323311    39A1     7.534518    40A1    24.281666  
      41A1    32.751949    42A1    45.004496  

    Final Occupation by Irrep:
             A1    A2    B1    B2 
    DOCC [     7,    0,    1,    2 ]
    SOCC [     0,    0,    1,    0 ]

  Energy converged.

  @DF-UKS Final Energy:  -167.52679351479276

   => Energetics <=

    Nuclear Repulsion Energy =             52.8126240974428782
    One-Electron Energy =                -332.0811195580890285
    Two-Electron Energy =                 118.2638746278177848
    DFT Exchange-Correlation Energy =      -6.5212796319643580
    Empirical Dispersion Energy =          -0.0008930500000000
    VV10 Nonlocal Energy =                  0.0000000000000000
    Total Energy =                       -167.5267935147927005


  UHF NO Occupations:
  HONO-2 :    2 B2 1.9985746
  HONO-1 :    1 B1 1.9838121
  HONO-0 :    2 B1 1.0000000
  LUNO+0 :    3 B1 0.0161879
  LUNO+1 :    3 B2 0.0014254
  LUNO+2 :    8 A1 0.0011935
  LUNO+3 :    9 A1 0.0002264



Properties will be evaluated at   0.000000,   0.000000,   0.000000 [a0]

Properties computed using the SCF density matrix

  Nuclear Dipole Moment: [e a0]
     X:     0.0000      Y:     0.0000      Z:    -0.0090

  Electronic Dipole Moment: [e a0]
     X:     0.0000      Y:     0.0000      Z:    -0.2985

  Dipole Moment: [e a0]
     X:     0.0000      Y:     0.0000      Z:    -0.3075     Total:     0.3075

  Dipole Moment: [D]
     X:     0.0000      Y:     0.0000      Z:    -0.7817     Total:     0.7817


*** tstop() called on linux-en55 at Sun Nov 25 06:18:01 2018
Module time:
	user time   =       6.40 seconds =       0.11 minutes
	system time =       0.04 seconds =       0.00 minutes
	total time  =          6 seconds =       0.10 minutes
Total time:
	user time   =       6.40 seconds =       0.11 minutes
	system time =       0.04 seconds =       0.00 minutes
	total time  =          6 seconds =       0.10 minutes

*** tstart() called on linux-en55
*** at Sun Nov 25 06:18:01 2018

   => Loading Basis Set <=

    Name: (DEF2-TZVP AUX)
    Role: RIFIT
    Keyword: DF_BASIS_MP2
    atoms 1 entry C          line   179 file /home/yuant/psi4conda/share/psi4/basis/def2-tzvp-ri.gbs 
    atoms 2 entry N          line   226 file /home/yuant/psi4conda/share/psi4/basis/def2-tzvp-ri.gbs 
    atoms 3 entry O          line   273 file /home/yuant/psi4conda/share/psi4/basis/def2-tzvp-ri.gbs 

	 --------------------------------------------------------
	                          DF-MP2                         
	      2nd-Order Density-Fitted Moller-Plesset Theory     
	              UMP2 Wavefunction,   1 Threads             
	                                                         
	        Rob Parrish, Justin Turney, Andy Simmonett,      
	           Ed Hohenstein, and C. David Sherrill          
	 --------------------------------------------------------

	 --------------------------------------------------------
	                 NBF =    93, NAUX =   228
	 --------------------------------------------------------
	   CLASS    FOCC     OCC    AOCC    AVIR     VIR    FVIR
	   ALPHA       0      11      11      82      82       0
	    BETA       0      10      10      83      83       0
	 --------------------------------------------------------

	-----------------------------------------------------------
	 ==================> DF-MP2 Energies <==================== 
	-----------------------------------------------------------
	 Reference Energy          =    -167.5267935147927574 [Eh]
	 Singles Energy            =      -0.0000000000000083 [Eh]
	 Same-Spin Energy          =      -0.1643752136939441 [Eh]
	 Opposite-Spin Energy      =      -0.4867260587784545 [Eh]
	 Correlation Energy        =      -0.6511012724724069 [Eh]
	 Total Energy              =    -168.1778947872651599 [Eh]
	-----------------------------------------------------------
	 ================> DF-SCS-MP2 Energies <================== 
	-----------------------------------------------------------
	 SCS Same-Spin Scale       =       0.2200000000000000 [-]
	 SCS Opposite-Spin Scale   =       0.5200000000000000 [-]
	 SCS Same-Spin Energy      =      -0.0361625470126677 [Eh]
	 SCS Opposite-Spin Energy  =      -0.2530975505647963 [Eh]
	 SCS Correlation Energy    =      -0.2892600975774723 [Eh]
	 SCS Total Energy          =    -167.8160536123702400 [Eh]
	-----------------------------------------------------------



    DSD-PBEP86-D3BJ Energy Summary
    -------------------------
    DFT Reference Energy                  =  -167.5267935147927574
    Scaled MP2 Correlation                =    -0.2892600975774723
    @Final double-hybrid DFT total energy =  -167.8160536123702400


*** tstop() called on linux-en55 at Sun Nov 25 06:18:01 2018
Module time:
	user time   =       0.19 seconds =       0.00 minutes
	system time =       0.00 seconds =       0.00 minutes
	total time  =          0 seconds =       0.00 minutes
Total time:
	user time   =       6.59 seconds =       0.11 minutes
	system time =       0.04 seconds =       0.00 minutes
	total time  =          6 seconds =       0.10 minutes

  //>>>>>>>>>>>>>>>>>>>>>>>>>>>>>>>>>>>//
  //    Loading displacement 2 of 5    //
  //<<<<<<<<<<<<<<<<<<<<<<<<<<<<<<<<<<<//

*** tstart() called on linux-en55
*** at Sun Nov 25 06:18:01 2018

   => Loading Basis Set <=

    Name: DEF2-TZVP
    Role: ORBITAL
    Keyword: BASIS
    atoms 1 entry C          line   123 file /home/yuant/psi4conda/share/psi4/basis/def2-tzvp.gbs 
    atoms 2 entry N          line   156 file /home/yuant/psi4conda/share/psi4/basis/def2-tzvp.gbs 
    atoms 3 entry O          line   189 file /home/yuant/psi4conda/share/psi4/basis/def2-tzvp.gbs 


         ---------------------------------------------------------
                                   SCF
            by Justin Turney, Rob Parrish, Andy Simmonett
                             and Daniel Smith
                              UKS Reference
                        1 Threads,   1907 MiB Core
         ---------------------------------------------------------

  ==> Geometry <==

    Molecular point group: c2v
    Full point group: C_inf_v

    Geometry (in Angstrom), charge = 0, multiplicity = 2:

       Center              X                  Y                   Z               Mass       
    ------------   -----------------  -----------------  -----------------  -----------------
         C            0.000000000000     0.000000000000     0.031847054500    12.000000000000
         N            0.000000000000     0.000000000000     1.250943303709    14.003074004780
         O            0.000000000000     0.000000000000    -1.119056696291    15.994914619560

  Running in c2v symmetry.

  Rotational constants: A = ************  B =      0.40180  C =      0.40180 [cm^-1]
  Rotational constants: A = ************  B =  12045.66864  C =  12045.66864 [MHz]
  Nuclear repulsion =   52.804898842802501

  Charge       = 0
  Multiplicity = 2
  Electrons    = 21
  Nalpha       = 11
  Nbeta        = 10

  ==> Algorithm <==

  SCF Algorithm Type is DF.
  DIIS enabled.
  MOM disabled.
  Fractional occupation disabled.
  Guess Type is GWH.
  Energy threshold   = 1.00e-08
  Density threshold  = 1.00e-08
  Integral threshold = 0.00e+00

  ==> Primary Basis <==

  Basis Set: DEF2-TZVP
    Blend: DEF2-TZVP
    Number of shells: 33
    Number of basis function: 93
    Number of Cartesian functions: 108
    Spherical Harmonics?: true
    Max angular momentum: 3

  ==> DFT Potential <==

   => Composite Functional: DSD-PBEP86-D3BJ <= 

    DSD-PBEP86-D3BJ Dispersion-corrected SCS Double Hybrid XC Functional

    S. Kozuch, J.M.L. Martin, J. Comp. Chem., 34, 2327-2344, 2013


    Deriv               =              1
    GGA                 =           TRUE
    Meta                =          FALSE

    Exchange Hybrid     =           TRUE
    MP2 Hybrid          =           TRUE

   => Exchange Functionals <=

    0.3100     XC_GGA_X_PBE

   => Exact (HF) Exchange <=

    0.6900               HF 

   => Correlation Functionals <=

    0.4400     XC_GGA_C_P86

   => MP2 Correlation <=

    MP2 SCS Hybrid      =           TRUE
    MP2 OS Alpha        =       0.520000
    MP2 SS Alpha        =       0.220000

   => Molecular Quadrature <=

    Radial Scheme       =       TREUTLER
    Pruning Scheme      =           FLAT
    Nuclear Scheme      =       TREUTLER

    BS radius alpha     =              1
    Pruning alpha       =              1
    Radial Points       =             75
    Spherical Points    =            302
    Total Points        =          65923
    Total Blocks        =            568
    Max Points          =            256
    Max Functions       =             92

   => -D3BJ: Empirical Dispersion <=

    Grimme's -D3 (BJ-damping) Dispersion Correction
    Grimme S.; Ehrlich S.; Goerigk L. (2011), J. Comput. Chem., 32: 1456
    Parametrisation from: 
    S. Kozuch, J.M.L. Martin, J. Comp. Chem., 34, 2327-2344, 2013


        S6 =   4.800000E-01
        S8 =   0.000000E+00
        A1 =   0.000000E+00
        A2 =   5.600000E+00

   => Loading Basis Set <=

    Name: (DEF2-TZVP AUX)
    Role: JKFIT
    Keyword: DF_BASIS_SCF
    atoms 1 entry C          line   203 file /home/yuant/psi4conda/share/psi4/basis/def2-tzvp-jkfit.gbs 
    atoms 2 entry N          line   263 file /home/yuant/psi4conda/share/psi4/basis/def2-tzvp-jkfit.gbs 
    atoms 3 entry O          line   323 file /home/yuant/psi4conda/share/psi4/basis/def2-tzvp-jkfit.gbs 

  ==> Pre-Iterations <==

   -------------------------------------------------------
    Irrep   Nso     Nmo     Nalpha   Nbeta   Ndocc  Nsocc
   -------------------------------------------------------
     A1        42      42       0       0       0       0
     A2         9       9       0       0       0       0
     B1        21      21       0       0       0       0
     B2        21      21       0       0       0       0
   -------------------------------------------------------
    Total      93      93      11      10      10       1
   -------------------------------------------------------

  ==> Integral Setup <==

  ==> MemDFJK: Density-Fitted J/K Matrices <==

    J tasked:                   Yes
    K tasked:                   Yes
    wK tasked:                   No
    OpenMP threads:               1
    Memory (MB):               1430
    Algorithm:                 Core
    Schwarz Cutoff:           1E-12
    Mask sparsity (%):       0.5319
    Fitting Condition:        1E-12

   => Auxiliary Basis Set <=

  Basis Set: (DEF2-TZVP AUX)
    Blend: DEF2-TZVP-JKFIT
    Number of shells: 75
    Number of basis function: 229
    Number of Cartesian functions: 275
    Spherical Harmonics?: true
    Max angular momentum: 4

  Minimum eigenvalue in the overlap matrix is 2.5071751500E-04.
  Using Symmetric Orthogonalization.

  SCF Guess: Generalized Wolfsberg-Helmholtz.

  ==> Iterations <==

                           Total Energy        Delta E     RMS |[F,P]|

    Occupation by irrep:
             A1    A2    B1    B2 
    DOCC [     7,    0,    1,    2 ]
    SOCC [     0,    0,    1,    0 ]

   @DF-UKS iter   1:  -155.46192707531873   -1.55462e+02   3.47292e-01 
    Occupation by irrep:
             A1    A2    B1    B2 
    DOCC [     6,    0,    2,    2 ]
    SOCC [     1,    0,    0,    0 ]

   @DF-UKS iter   2:  -156.60187738507250   -1.13995e+00   6.99298e-02 DIIS
   @DF-UKS iter   3:  -146.32282116889718    1.02791e+01   1.19143e-01 DIIS
    Occupation by irrep:
             A1    A2    B1    B2 
    DOCC [     7,    0,    2,    1 ]
    SOCC [     0,    0,    0,    1 ]

   @DF-UKS iter   4:  -161.84616665710388   -1.55233e+01   6.22295e-02 DIIS
   @DF-UKS iter   5:  -166.93084773891974   -5.08468e+00   2.32400e-02 DIIS
   @DF-UKS iter   6:  -167.27200121976617   -3.41153e-01   1.36975e-02 DIIS
   @DF-UKS iter   7:  -167.50706140863775   -2.35060e-01   2.71751e-03 DIIS
   @DF-UKS iter   8:  -167.52164688688035   -1.45855e-02   1.33924e-03 DIIS
   @DF-UKS iter   9:  -167.52444326592962   -2.79638e-03   5.95278e-04 DIIS
   @DF-UKS iter  10:  -167.52601513118600   -1.57187e-03   2.48483e-04 DIIS
   @DF-UKS iter  11:  -167.52663901004647   -6.23879e-04   1.29294e-04 DIIS
   @DF-UKS iter  12:  -167.52680593957521   -1.66930e-04   6.36800e-05 DIIS
   @DF-UKS iter  13:  -167.52683224517722   -2.63056e-05   2.15249e-05 DIIS
   @DF-UKS iter  14:  -167.52683579983704   -3.55466e-06   6.57187e-06 DIIS
   @DF-UKS iter  15:  -167.52683603224608   -2.32409e-07   1.82561e-06 DIIS
   @DF-UKS iter  16:  -167.52683605442724   -2.21812e-08   9.09045e-07 DIIS
   @DF-UKS iter  17:  -167.52683606163615   -7.20891e-09   4.91802e-07 DIIS
   @DF-UKS iter  18:  -167.52683606427382   -2.63768e-09   2.54394e-07 DIIS
   @DF-UKS iter  19:  -167.52683606486062   -5.86795e-10   5.93937e-08 DIIS
   @DF-UKS iter  20:  -167.52683606488546   -2.48406e-11   1.08100e-08 DIIS
   @DF-UKS iter  21:  -167.52683606488594   -4.83169e-13   2.53252e-09 DIIS

  ==> Post-Iterations <==

   @Spin Contamination Metric:   3.910465930E-02
   @S^2 Expected:                7.500000000E-01
   @S^2 Observed:                7.891046593E-01
   @S   Expected:                5.000000000E-01
   @S   Observed:                5.000000000E-01

    Orbital Energies [Eh]
    ---------------------

    Alpha Occupied:                                                       

       1A1   -20.128041     2A1   -15.160884     3A1   -10.986834  
       4A1    -1.407935     5A1    -1.175827     6A1    -0.719378  
       1B2    -0.658240     1B1    -0.632630     7A1    -0.570037  
       2B2    -0.484438     2B1    -0.432922  

    Alpha Virtual:                                                        

       8A1     0.099961     3B2     0.123494     3B1     0.144320  
       9A1     0.220305     4B2     0.254502     4B1     0.260791  
      10A1     0.380003    11A1     0.429508     5B2     0.448909  
       5B1     0.466348    12A1     0.470588     6B2     0.629993  
       6B1     0.642909    13A1     0.670947     1A2     0.673792  
      14A1     0.680728    15A1     0.883525     7B2     1.051897  
       7B1     1.074850    16A1     1.091059     2A2     1.211832  
      17A1     1.212926    18A1     1.352483    19A1     1.446062  
       8B2     1.485299     8B1     1.490944    20A1     1.690056  
       9B2     1.691810     3A2     1.692216    21A1     1.707600  
       9B1     1.716953    10B2     2.081003    10B1     2.102878  
      22A1     2.138327    23A1     2.323114    11B2     2.501199  
      11B1     2.536467    24A1     2.587894    12B2     2.736771  
      12B1     2.736771    13B2     2.910054    13B1     2.928945  
      25A1     2.964205     4A2     2.964357     5A2     3.056380  
      26A1     3.056441    27A1     3.166363    14B2     3.255283  
      14B1     3.280351    28A1     3.375083    29A1     3.706582  
      15B2     3.764468    15B1     3.782192    16B1     4.093464  
      16B2     4.093472    30A1     4.453324     6A2     4.512537  
      31A1     4.516897    32A1     4.727452     7A2     4.729084  
      33A1     4.821321    17B2     5.179730    17B1     5.213376  
      18B2     5.322645    18B1     5.322660    19B2     5.550929  
      19B1     5.580683    34A1     5.622134     8A2     5.855496  
      35A1     5.855827    36A1     5.914703    37A1     6.522061  
       9A2     6.522087    20B2     6.780102    20B1     6.799902  
      21B2     7.061452    21B1     7.083810    38A1     7.308671  
      39A1     7.522947    40A1    24.289242    41A1    32.739198  
      42A1    44.992601  

    Beta Occupied:                                                        

       1A1   -20.114246     2A1   -15.140504     3A1   -10.991761  
       4A1    -1.379955     5A1    -1.104745     6A1    -0.701537  
       1B1    -0.627631     1B2    -0.566097     7A1    -0.536350  
       2B1    -0.406398  

    Beta Virtual:                                                         

       2B2    -0.100105     8A1     0.102674     3B1     0.147504  
       3B2     0.204329     9A1     0.224574     4B2     0.253707  
       4B1     0.257654    10A1     0.385620    11A1     0.434121  
       5B1     0.473166    12A1     0.473725     5B2     0.495998  
       6B1     0.646848     6B2     0.663565     1A2     0.677068  
      13A1     0.677484    14A1     0.687668    15A1     0.890783  
       7B1     1.077678     7B2     1.088647    16A1     1.109953  
       2A2     1.254177    17A1     1.256240    18A1     1.358778  
      19A1     1.446964     8B2     1.475272     8B1     1.483913  
      20A1     1.712365     3A2     1.715137    21A1     1.715638  
       9B1     1.722010     9B2     1.730182    10B1     2.108252  
      10B2     2.117604    22A1     2.146896    23A1     2.347064  
      11B1     2.549972    11B2     2.568120    24A1     2.595627  
      12B1     2.730274    12B2     2.730294    13B1     2.929938  
      13B2     2.936374     4A2     2.973179    25A1     2.973623  
       5A2     3.045607    26A1     3.045733    27A1     3.178623  
      14B1     3.284884    14B2     3.290738    28A1     3.381078  
      29A1     3.714830    15B2     3.779729    15B1     3.782886  
      16B1     4.139679    16B2     4.140401    30A1     4.473124  
       6A2     4.548343    31A1     4.550563     7A2     4.783387  
      32A1     4.786120    33A1     4.836342    17B1     5.221357  
      17B2     5.223312    18B1     5.344705    18B2     5.344755  
      19B2     5.583012    19B1     5.585786    34A1     5.638224  
       8A2     5.870879    35A1     5.871288    36A1     5.925166  
       9A2     6.556453    37A1     6.557234    20B2     6.798915  
      20B1     6.802570    21B1     7.088133    21B2     7.089986  
      38A1     7.320533    39A1     7.529781    40A1    24.286411  
      41A1    32.753579    42A1    45.001166  

    Final Occupation by Irrep:
             A1    A2    B1    B2 
    DOCC [     7,    0,    2,    1 ]
    SOCC [     0,    0,    0,    1 ]

  Energy converged.

  @DF-UKS Final Energy:  -167.52683606488594

   => Energetics <=

    Nuclear Repulsion Energy =             52.8048988428025012
    One-Electron Energy =                -332.0676389900497725
    Two-Electron Energy =                 118.2579757233737467
    DFT Exchange-Correlation Energy =      -6.5211785910124318
    Empirical Dispersion Energy =          -0.0008930500000000
    VV10 Nonlocal Energy =                  0.0000000000000000
    Total Energy =                       -167.5268360648859414


  UHF NO Occupations:
  HONO-2 :    2 B1 1.9985793
  HONO-1 :    1 B2 1.9834003
  HONO-0 :    2 B2 1.0000000
  LUNO+0 :    3 B2 0.0165997
  LUNO+1 :    3 B1 0.0014207
  LUNO+2 :    8 A1 0.0011855
  LUNO+3 :    9 A1 0.0002318



Properties will be evaluated at   0.000000,   0.000000,   0.000000 [a0]

Properties computed using the SCF density matrix

  Nuclear Dipole Moment: [e a0]
     X:     0.0000      Y:     0.0000      Z:    -0.0090

  Electronic Dipole Moment: [e a0]
     X:     0.0000      Y:     0.0000      Z:    -0.2950

  Dipole Moment: [e a0]
     X:     0.0000      Y:     0.0000      Z:    -0.3040     Total:     0.3040

  Dipole Moment: [D]
     X:     0.0000      Y:     0.0000      Z:    -0.7728     Total:     0.7728


*** tstop() called on linux-en55 at Sun Nov 25 06:18:08 2018
Module time:
	user time   =       6.40 seconds =       0.11 minutes
	system time =       0.03 seconds =       0.00 minutes
	total time  =          7 seconds =       0.12 minutes
Total time:
	user time   =      13.00 seconds =       0.22 minutes
	system time =       0.07 seconds =       0.00 minutes
	total time  =         13 seconds =       0.22 minutes

*** tstart() called on linux-en55
*** at Sun Nov 25 06:18:08 2018

   => Loading Basis Set <=

    Name: (DEF2-TZVP AUX)
    Role: RIFIT
    Keyword: DF_BASIS_MP2
    atoms 1 entry C          line   179 file /home/yuant/psi4conda/share/psi4/basis/def2-tzvp-ri.gbs 
    atoms 2 entry N          line   226 file /home/yuant/psi4conda/share/psi4/basis/def2-tzvp-ri.gbs 
    atoms 3 entry O          line   273 file /home/yuant/psi4conda/share/psi4/basis/def2-tzvp-ri.gbs 

	 --------------------------------------------------------
	                          DF-MP2                         
	      2nd-Order Density-Fitted Moller-Plesset Theory     
	              UMP2 Wavefunction,   1 Threads             
	                                                         
	        Rob Parrish, Justin Turney, Andy Simmonett,      
	           Ed Hohenstein, and C. David Sherrill          
	 --------------------------------------------------------

	 --------------------------------------------------------
	                 NBF =    93, NAUX =   228
	 --------------------------------------------------------
	   CLASS    FOCC     OCC    AOCC    AVIR     VIR    FVIR
	   ALPHA       0      11      11      82      82       0
	    BETA       0      10      10      83      83       0
	 --------------------------------------------------------

	-----------------------------------------------------------
	 ==================> DF-MP2 Energies <==================== 
	-----------------------------------------------------------
	 Reference Energy          =    -167.5268360648859414 [Eh]
	 Singles Energy            =      -0.0000000000000070 [Eh]
	 Same-Spin Energy          =      -0.1644161857022456 [Eh]
	 Opposite-Spin Energy      =      -0.4867453235259299 [Eh]
	 Correlation Energy        =      -0.6511615092281825 [Eh]
	 Total Energy              =    -168.1779975741141300 [Eh]
	-----------------------------------------------------------
	 ================> DF-SCS-MP2 Energies <================== 
	-----------------------------------------------------------
	 SCS Same-Spin Scale       =       0.2200000000000000 [-]
	 SCS Opposite-Spin Scale   =       0.5200000000000000 [-]
	 SCS Same-Spin Energy      =      -0.0361715608544940 [Eh]
	 SCS Opposite-Spin Energy  =      -0.2531075682334836 [Eh]
	 SCS Correlation Energy    =      -0.2892791290879846 [Eh]
	 SCS Total Energy          =    -167.8161151939739284 [Eh]
	-----------------------------------------------------------



    DSD-PBEP86-D3BJ Energy Summary
    -------------------------
    DFT Reference Energy                  =  -167.5268360648859414
    Scaled MP2 Correlation                =    -0.2892791290879846
    @Final double-hybrid DFT total energy =  -167.8161151939739284


*** tstop() called on linux-en55 at Sun Nov 25 06:18:08 2018
Module time:
	user time   =       0.20 seconds =       0.00 minutes
	system time =       0.01 seconds =       0.00 minutes
	total time  =          0 seconds =       0.00 minutes
Total time:
	user time   =      13.20 seconds =       0.22 minutes
	system time =       0.08 seconds =       0.00 minutes
	total time  =         13 seconds =       0.22 minutes

  //>>>>>>>>>>>>>>>>>>>>>>>>>>>>>>>>>>>//
  //    Loading displacement 3 of 5    //
  //<<<<<<<<<<<<<<<<<<<<<<<<<<<<<<<<<<<//

*** tstart() called on linux-en55
*** at Sun Nov 25 06:18:08 2018

   => Loading Basis Set <=

    Name: DEF2-TZVP
    Role: ORBITAL
    Keyword: BASIS
    atoms 1 entry C          line   123 file /home/yuant/psi4conda/share/psi4/basis/def2-tzvp.gbs 
    atoms 2 entry N          line   156 file /home/yuant/psi4conda/share/psi4/basis/def2-tzvp.gbs 
    atoms 3 entry O          line   189 file /home/yuant/psi4conda/share/psi4/basis/def2-tzvp.gbs 


         ---------------------------------------------------------
                                   SCF
            by Justin Turney, Rob Parrish, Andy Simmonett
                             and Daniel Smith
                              UKS Reference
                        1 Threads,   1907 MiB Core
         ---------------------------------------------------------

  ==> Geometry <==

    Molecular point group: c2v
    Full point group: C_inf_v

    Geometry (in Angstrom), charge = 0, multiplicity = 2:

       Center              X                  Y                   Z               Mass       
    ------------   -----------------  -----------------  -----------------  -----------------
         C            0.000000000000     0.000000000000     0.031201530587    12.000000000000
         N            0.000000000000     0.000000000000     1.250685227956    14.003074004780
         O            0.000000000000     0.000000000000    -1.118346461751    15.994914619560

  Running in c2v symmetry.

  Rotational constants: A = ************  B =      0.40214  C =      0.40214 [cm^-1]
  Rotational constants: A = ************  B =  12055.71030  C =  12055.71030 [MHz]
  Nuclear repulsion =   52.830246370149091

  Charge       = 0
  Multiplicity = 2
  Electrons    = 21
  Nalpha       = 11
  Nbeta        = 10

  ==> Algorithm <==

  SCF Algorithm Type is DF.
  DIIS enabled.
  MOM disabled.
  Fractional occupation disabled.
  Guess Type is GWH.
  Energy threshold   = 1.00e-08
  Density threshold  = 1.00e-08
  Integral threshold = 0.00e+00

  ==> Primary Basis <==

  Basis Set: DEF2-TZVP
    Blend: DEF2-TZVP
    Number of shells: 33
    Number of basis function: 93
    Number of Cartesian functions: 108
    Spherical Harmonics?: true
    Max angular momentum: 3

  ==> DFT Potential <==

   => Composite Functional: DSD-PBEP86-D3BJ <= 

    DSD-PBEP86-D3BJ Dispersion-corrected SCS Double Hybrid XC Functional

    S. Kozuch, J.M.L. Martin, J. Comp. Chem., 34, 2327-2344, 2013


    Deriv               =              1
    GGA                 =           TRUE
    Meta                =          FALSE

    Exchange Hybrid     =           TRUE
    MP2 Hybrid          =           TRUE

   => Exchange Functionals <=

    0.3100     XC_GGA_X_PBE

   => Exact (HF) Exchange <=

    0.6900               HF 

   => Correlation Functionals <=

    0.4400     XC_GGA_C_P86

   => MP2 Correlation <=

    MP2 SCS Hybrid      =           TRUE
    MP2 OS Alpha        =       0.520000
    MP2 SS Alpha        =       0.220000

   => Molecular Quadrature <=

    Radial Scheme       =       TREUTLER
    Pruning Scheme      =           FLAT
    Nuclear Scheme      =       TREUTLER

    BS radius alpha     =              1
    Pruning alpha       =              1
    Radial Points       =             75
    Spherical Points    =            302
    Total Points        =          65923
    Total Blocks        =            569
    Max Points          =            255
    Max Functions       =             92

   => -D3BJ: Empirical Dispersion <=

    Grimme's -D3 (BJ-damping) Dispersion Correction
    Grimme S.; Ehrlich S.; Goerigk L. (2011), J. Comput. Chem., 32: 1456
    Parametrisation from: 
    S. Kozuch, J.M.L. Martin, J. Comp. Chem., 34, 2327-2344, 2013


        S6 =   4.800000E-01
        S8 =   0.000000E+00
        A1 =   0.000000E+00
        A2 =   5.600000E+00

   => Loading Basis Set <=

    Name: (DEF2-TZVP AUX)
    Role: JKFIT
    Keyword: DF_BASIS_SCF
    atoms 1 entry C          line   203 file /home/yuant/psi4conda/share/psi4/basis/def2-tzvp-jkfit.gbs 
    atoms 2 entry N          line   263 file /home/yuant/psi4conda/share/psi4/basis/def2-tzvp-jkfit.gbs 
    atoms 3 entry O          line   323 file /home/yuant/psi4conda/share/psi4/basis/def2-tzvp-jkfit.gbs 

  ==> Pre-Iterations <==

   -------------------------------------------------------
    Irrep   Nso     Nmo     Nalpha   Nbeta   Ndocc  Nsocc
   -------------------------------------------------------
     A1        42      42       0       0       0       0
     A2         9       9       0       0       0       0
     B1        21      21       0       0       0       0
     B2        21      21       0       0       0       0
   -------------------------------------------------------
    Total      93      93      11      10      10       1
   -------------------------------------------------------

  ==> Integral Setup <==

  ==> MemDFJK: Density-Fitted J/K Matrices <==

    J tasked:                   Yes
    K tasked:                   Yes
    wK tasked:                   No
    OpenMP threads:               1
    Memory (MB):               1430
    Algorithm:                 Core
    Schwarz Cutoff:           1E-12
    Mask sparsity (%):       0.5319
    Fitting Condition:        1E-12

   => Auxiliary Basis Set <=

  Basis Set: (DEF2-TZVP AUX)
    Blend: DEF2-TZVP-JKFIT
    Number of shells: 75
    Number of basis function: 229
    Number of Cartesian functions: 275
    Spherical Harmonics?: true
    Max angular momentum: 4

  Minimum eigenvalue in the overlap matrix is 2.5016928852E-04.
  Using Symmetric Orthogonalization.

  SCF Guess: Generalized Wolfsberg-Helmholtz.

  ==> Iterations <==

                           Total Energy        Delta E     RMS |[F,P]|

    Occupation by irrep:
             A1    A2    B1    B2 
    DOCC [     7,    0,    1,    2 ]
    SOCC [     0,    0,    1,    0 ]

   @DF-UKS iter   1:  -155.46031459959630   -1.55460e+02   3.47272e-01 
    Occupation by irrep:
             A1    A2    B1    B2 
    DOCC [     6,    0,    2,    2 ]
    SOCC [     1,    0,    0,    0 ]

   @DF-UKS iter   2:  -156.59829743355493   -1.13798e+00   6.99497e-02 DIIS
   @DF-UKS iter   3:  -146.34415076394853    1.02541e+01   1.19137e-01 DIIS
    Occupation by irrep:
             A1    A2    B1    B2 
    DOCC [     7,    0,    2,    1 ]
    SOCC [     0,    0,    0,    1 ]

   @DF-UKS iter   4:  -161.84936321372189   -1.55052e+01   6.22138e-02 DIIS
   @DF-UKS iter   5:  -166.93261878653851   -5.08326e+00   2.32108e-02 DIIS
   @DF-UKS iter   6:  -167.27268178917674   -3.40063e-01   1.36798e-02 DIIS
   @DF-UKS iter   7:  -167.50711601331284   -2.34434e-01   2.71588e-03 DIIS
   @DF-UKS iter   8:  -167.52168010103924   -1.45641e-02   1.33585e-03 DIIS
   @DF-UKS iter   9:  -167.52445887785345   -2.77878e-03   5.92763e-04 DIIS
   @DF-UKS iter  10:  -167.52601167648521   -1.55280e-03   2.46978e-04 DIIS
   @DF-UKS iter  11:  -167.52662420219471   -6.12526e-04   1.28843e-04 DIIS
   @DF-UKS iter  12:  -167.52678801411292   -1.63812e-04   6.31461e-05 DIIS
   @DF-UKS iter  13:  -167.52681406927775   -2.60552e-05   2.13032e-05 DIIS
   @DF-UKS iter  14:  -167.52681756690322   -3.49763e-06   6.48295e-06 DIIS
   @DF-UKS iter  15:  -167.52681779215624   -2.25253e-07   1.78121e-06 DIIS
   @DF-UKS iter  16:  -167.52681781299009   -2.08339e-08   8.74420e-07 DIIS
   @DF-UKS iter  17:  -167.52681781956045   -6.57036e-09   4.75805e-07 DIIS
   @DF-UKS iter  18:  -167.52681782200571   -2.44526e-09   2.48651e-07 DIIS
   @DF-UKS iter  19:  -167.52681782257193   -5.66217e-10   5.88881e-08 DIIS
   @DF-UKS iter  20:  -167.52681782259702   -2.50964e-11   1.07419e-08 DIIS
   @DF-UKS iter  21:  -167.52681782259748   -4.54747e-13   2.50240e-09 DIIS

  ==> Post-Iterations <==

   @Spin Contamination Metric:   3.860481046E-02
   @S^2 Expected:                7.500000000E-01
   @S^2 Observed:                7.886048105E-01
   @S   Expected:                5.000000000E-01
   @S   Observed:                5.000000000E-01

    Orbital Energies [Eh]
    ---------------------

    Alpha Occupied:                                                       

       1A1   -20.127862     2A1   -15.160691     3A1   -10.986814  
       4A1    -1.408685     5A1    -1.175590     6A1    -0.719499  
       1B2    -0.658520     1B1    -0.633028     7A1    -0.569933  
       2B2    -0.484221     2B1    -0.432681  

    Alpha Virtual:                                                        

       8A1     0.099995     3B2     0.123732     3B1     0.144582  
       9A1     0.220308     4B2     0.254409     4B1     0.260720  
      10A1     0.380055    11A1     0.429842     5B2     0.448878  
       5B1     0.466332    12A1     0.470691     6B2     0.630119  
       6B1     0.643002    13A1     0.670901     1A2     0.673699  
      14A1     0.680749    15A1     0.883553     7B2     1.052243  
       7B1     1.075231    16A1     1.092159     2A2     1.211778  
      17A1     1.212882    18A1     1.353343    19A1     1.445843  
       8B2     1.484854     8B1     1.490546    20A1     1.690333  
       9B2     1.692122     3A2     1.692622    21A1     1.707114  
       9B1     1.717296    10B2     2.081111    10B1     2.102928  
      22A1     2.138905    23A1     2.323133    11B2     2.501004  
      11B1     2.536298    24A1     2.589160    12B2     2.736637  
      12B1     2.736638    13B2     2.910138    13B1     2.929035  
      25A1     2.964463     4A2     2.964616     5A2     3.056347  
      26A1     3.056409    27A1     3.166685    14B2     3.256762  
      14B1     3.281790    28A1     3.376009    29A1     3.707908  
      15B2     3.765166    15B1     3.782884    16B1     4.093521  
      16B2     4.093529    30A1     4.450995     6A2     4.512384  
      31A1     4.516616    32A1     4.727565     7A2     4.729161  
      33A1     4.823923    17B2     5.180216    17B1     5.213901  
      18B2     5.322825    18B1     5.322840    19B2     5.550291  
      19B1     5.580104    34A1     5.622922     8A2     5.857698  
      35A1     5.858026    36A1     5.915821    37A1     6.522467  
       9A2     6.522492    20B2     6.781947    20B1     6.801653  
      21B2     7.061923    21B1     7.084168    38A1     7.312377  
      39A1     7.526964    40A1    24.291557    41A1    32.738937  
      42A1    44.995281  

    Beta Occupied:                                                        

       1A1   -20.114166     2A1   -15.140295     3A1   -10.991704  
       4A1    -1.380951     5A1    -1.104415     6A1    -0.701745  
       1B1    -0.628078     1B2    -0.566845     7A1    -0.536206  
       2B1    -0.406168  

    Beta Virtual:                                                         

       2B2    -0.099835     8A1     0.102731     3B1     0.147788  
       3B2     0.204593     9A1     0.224574     4B2     0.253679  
       4B1     0.257599    10A1     0.385687    11A1     0.434517  
       5B1     0.473146    12A1     0.473842     5B2     0.495997  
       6B1     0.646925     6B2     0.663594     1A2     0.677057  
      13A1     0.677473    14A1     0.687745    15A1     0.890784  
       7B1     1.078075     7B2     1.089045    16A1     1.111037  
       2A2     1.254172    17A1     1.256247    18A1     1.359658  
      19A1     1.446771     8B2     1.474949     8B1     1.483560  
      20A1     1.711764     3A2     1.715408    21A1     1.715899  
       9B1     1.722353     9B2     1.730531    10B1     2.108273  
      10B2     2.117586    22A1     2.147463    23A1     2.347105  
      11B1     2.549800    11B2     2.567951    24A1     2.596880  
      12B1     2.730231    12B2     2.730251    13B1     2.930023  
      13B2     2.936436     4A2     2.973447    25A1     2.973893  
       5A2     3.045726    26A1     3.045853    27A1     3.178889  
      14B1     3.286307    14B2     3.292110    28A1     3.381991  
      29A1     3.716191    15B2     3.780418    15B1     3.783579  
      16B1     4.139790    16B2     4.140514    30A1     4.470682  
       6A2     4.548206    31A1     4.550428     7A2     4.783534  
      32A1     4.786293    33A1     4.838940    17B1     5.221875  
      17B2     5.223827    18B1     5.344720    18B2     5.344769  
      19B2     5.582445    19B1     5.585217    34A1     5.638982  
       8A2     5.872987    35A1     5.873392    36A1     5.926268  
       9A2     6.556600    37A1     6.557371    20B2     6.800603  
      20B1     6.804284    21B1     7.088459    21B2     7.090295  
      38A1     7.324216    39A1     7.533699    40A1    24.288754  
      41A1    32.753332    42A1    45.003783  

    Final Occupation by Irrep:
             A1    A2    B1    B2 
    DOCC [     7,    0,    2,    1 ]
    SOCC [     0,    0,    0,    1 ]

  Energy converged.

  @DF-UKS Final Energy:  -167.52681782259748

   => Energetics <=

    Nuclear Repulsion Energy =             52.8302463701490908
    One-Electron Energy =                -332.1163601635114446
    Two-Electron Energy =                 118.2817083620529530
    DFT Exchange-Correlation Energy =      -6.5215192312881181
    Empirical Dispersion Energy =          -0.0008931600000000
    VV10 Nonlocal Energy =                  0.0000000000000000
    Total Energy =                       -167.5268178225975362


  UHF NO Occupations:
  HONO-2 :    2 B1 1.9985849
  HONO-1 :    1 B2 1.9836461
  HONO-0 :    2 B2 1.0000000
  LUNO+0 :    3 B2 0.0163539
  LUNO+1 :    3 B1 0.0014151
  LUNO+2 :    8 A1 0.0011888
  LUNO+3 :    9 A1 0.0002286



Properties will be evaluated at   0.000000,   0.000000,   0.000000 [a0]

Properties computed using the SCF density matrix

  Nuclear Dipole Moment: [e a0]
     X:     0.0000      Y:     0.0000      Z:    -0.0090

  Electronic Dipole Moment: [e a0]
     X:     0.0000      Y:     0.0000      Z:    -0.2972

  Dipole Moment: [e a0]
     X:     0.0000      Y:     0.0000      Z:    -0.3062     Total:     0.3062

  Dipole Moment: [D]
     X:     0.0000      Y:     0.0000      Z:    -0.7784     Total:     0.7784


*** tstop() called on linux-en55 at Sun Nov 25 06:18:15 2018
Module time:
	user time   =       6.37 seconds =       0.11 minutes
	system time =       0.02 seconds =       0.00 minutes
	total time  =          7 seconds =       0.12 minutes
Total time:
	user time   =      19.57 seconds =       0.33 minutes
	system time =       0.10 seconds =       0.00 minutes
	total time  =         20 seconds =       0.33 minutes

*** tstart() called on linux-en55
*** at Sun Nov 25 06:18:15 2018

   => Loading Basis Set <=

    Name: (DEF2-TZVP AUX)
    Role: RIFIT
    Keyword: DF_BASIS_MP2
    atoms 1 entry C          line   179 file /home/yuant/psi4conda/share/psi4/basis/def2-tzvp-ri.gbs 
    atoms 2 entry N          line   226 file /home/yuant/psi4conda/share/psi4/basis/def2-tzvp-ri.gbs 
    atoms 3 entry O          line   273 file /home/yuant/psi4conda/share/psi4/basis/def2-tzvp-ri.gbs 

	 --------------------------------------------------------
	                          DF-MP2                         
	      2nd-Order Density-Fitted Moller-Plesset Theory     
	              UMP2 Wavefunction,   1 Threads             
	                                                         
	        Rob Parrish, Justin Turney, Andy Simmonett,      
	           Ed Hohenstein, and C. David Sherrill          
	 --------------------------------------------------------

	 --------------------------------------------------------
	                 NBF =    93, NAUX =   228
	 --------------------------------------------------------
	   CLASS    FOCC     OCC    AOCC    AVIR     VIR    FVIR
	   ALPHA       0      11      11      82      82       0
	    BETA       0      10      10      83      83       0
	 --------------------------------------------------------

	-----------------------------------------------------------
	 ==================> DF-MP2 Energies <==================== 
	-----------------------------------------------------------
	 Reference Energy          =    -167.5268178225974793 [Eh]
	 Singles Energy            =      -0.0000000000000075 [Eh]
	 Same-Spin Energy          =      -0.1643573086907824 [Eh]
	 Opposite-Spin Energy      =      -0.4866401946151583 [Eh]
	 Correlation Energy        =      -0.6509975033059482 [Eh]
	 Total Energy              =    -168.1778153259034241 [Eh]
	-----------------------------------------------------------
	 ================> DF-SCS-MP2 Energies <================== 
	-----------------------------------------------------------
	 SCS Same-Spin Scale       =       0.2200000000000000 [-]
	 SCS Opposite-Spin Scale   =       0.5200000000000000 [-]
	 SCS Same-Spin Energy      =      -0.0361586079119721 [Eh]
	 SCS Opposite-Spin Energy  =      -0.2530529011998823 [Eh]
	 SCS Correlation Energy    =      -0.2892115091118620 [Eh]
	 SCS Total Energy          =    -167.8160293317093306 [Eh]
	-----------------------------------------------------------



    DSD-PBEP86-D3BJ Energy Summary
    -------------------------
    DFT Reference Energy                  =  -167.5268178225974793
    Scaled MP2 Correlation                =    -0.2892115091118620
    @Final double-hybrid DFT total energy =  -167.8160293317093306


*** tstop() called on linux-en55 at Sun Nov 25 06:18:15 2018
Module time:
	user time   =       0.20 seconds =       0.00 minutes
	system time =       0.01 seconds =       0.00 minutes
	total time  =          0 seconds =       0.00 minutes
Total time:
	user time   =      19.77 seconds =       0.33 minutes
	system time =       0.11 seconds =       0.00 minutes
	total time  =         20 seconds =       0.33 minutes

  //>>>>>>>>>>>>>>>>>>>>>>>>>>>>>>>>>>>//
  //    Loading displacement 4 of 5    //
  //<<<<<<<<<<<<<<<<<<<<<<<<<<<<<<<<<<<//

*** tstart() called on linux-en55
*** at Sun Nov 25 06:18:15 2018

   => Loading Basis Set <=

    Name: DEF2-TZVP
    Role: ORBITAL
    Keyword: BASIS
    atoms 1 entry C          line   123 file /home/yuant/psi4conda/share/psi4/basis/def2-tzvp.gbs 
    atoms 2 entry N          line   156 file /home/yuant/psi4conda/share/psi4/basis/def2-tzvp.gbs 
    atoms 3 entry O          line   189 file /home/yuant/psi4conda/share/psi4/basis/def2-tzvp.gbs 


         ---------------------------------------------------------
                                   SCF
            by Justin Turney, Rob Parrish, Andy Simmonett
                             and Daniel Smith
                              UKS Reference
                        1 Threads,   1907 MiB Core
         ---------------------------------------------------------

  ==> Geometry <==

    Molecular point group: c2v
    Full point group: C_inf_v

    Geometry (in Angstrom), charge = 0, multiplicity = 2:

       Center              X                  Y                   Z               Mass       
    ------------   -----------------  -----------------  -----------------  -----------------
         C            0.000000000000     0.000000000000     0.031201530587    12.000000000000
         N            0.000000000000     0.000000000000     1.251717833219    14.003074004780
         O            0.000000000000     0.000000000000    -1.119250477074    15.994914619560

  Running in c2v symmetry.

  Rotational constants: A = ************  B =      0.40148  C =      0.40148 [cm^-1]
  Rotational constants: A = ************  B =  12036.03166  C =  12036.03166 [MHz]
  Nuclear repulsion =   52.787246818552504

  Charge       = 0
  Multiplicity = 2
  Electrons    = 21
  Nalpha       = 11
  Nbeta        = 10

  ==> Algorithm <==

  SCF Algorithm Type is DF.
  DIIS enabled.
  MOM disabled.
  Fractional occupation disabled.
  Guess Type is GWH.
  Energy threshold   = 1.00e-08
  Density threshold  = 1.00e-08
  Integral threshold = 0.00e+00

  ==> Primary Basis <==

  Basis Set: DEF2-TZVP
    Blend: DEF2-TZVP
    Number of shells: 33
    Number of basis function: 93
    Number of Cartesian functions: 108
    Spherical Harmonics?: true
    Max angular momentum: 3

  ==> DFT Potential <==

   => Composite Functional: DSD-PBEP86-D3BJ <= 

    DSD-PBEP86-D3BJ Dispersion-corrected SCS Double Hybrid XC Functional

    S. Kozuch, J.M.L. Martin, J. Comp. Chem., 34, 2327-2344, 2013


    Deriv               =              1
    GGA                 =           TRUE
    Meta                =          FALSE

    Exchange Hybrid     =           TRUE
    MP2 Hybrid          =           TRUE

   => Exchange Functionals <=

    0.3100     XC_GGA_X_PBE

   => Exact (HF) Exchange <=

    0.6900               HF 

   => Correlation Functionals <=

    0.4400     XC_GGA_C_P86

   => MP2 Correlation <=

    MP2 SCS Hybrid      =           TRUE
    MP2 OS Alpha        =       0.520000
    MP2 SS Alpha        =       0.220000

   => Molecular Quadrature <=

    Radial Scheme       =       TREUTLER
    Pruning Scheme      =           FLAT
    Nuclear Scheme      =       TREUTLER

    BS radius alpha     =              1
    Pruning alpha       =              1
    Radial Points       =             75
    Spherical Points    =            302
    Total Points        =          65923
    Total Blocks        =            569
    Max Points          =            255
    Max Functions       =             92

   => -D3BJ: Empirical Dispersion <=

    Grimme's -D3 (BJ-damping) Dispersion Correction
    Grimme S.; Ehrlich S.; Goerigk L. (2011), J. Comput. Chem., 32: 1456
    Parametrisation from: 
    S. Kozuch, J.M.L. Martin, J. Comp. Chem., 34, 2327-2344, 2013


        S6 =   4.800000E-01
        S8 =   0.000000E+00
        A1 =   0.000000E+00
        A2 =   5.600000E+00

   => Loading Basis Set <=

    Name: (DEF2-TZVP AUX)
    Role: JKFIT
    Keyword: DF_BASIS_SCF
    atoms 1 entry C          line   203 file /home/yuant/psi4conda/share/psi4/basis/def2-tzvp-jkfit.gbs 
    atoms 2 entry N          line   263 file /home/yuant/psi4conda/share/psi4/basis/def2-tzvp-jkfit.gbs 
    atoms 3 entry O          line   323 file /home/yuant/psi4conda/share/psi4/basis/def2-tzvp-jkfit.gbs 

  ==> Pre-Iterations <==

   -------------------------------------------------------
    Irrep   Nso     Nmo     Nalpha   Nbeta   Ndocc  Nsocc
   -------------------------------------------------------
     A1        42      42       0       0       0       0
     A2         9       9       0       0       0       0
     B1        21      21       0       0       0       0
     B2        21      21       0       0       0       0
   -------------------------------------------------------
    Total      93      93      11      10      10       1
   -------------------------------------------------------

  ==> Integral Setup <==

  ==> MemDFJK: Density-Fitted J/K Matrices <==

    J tasked:                   Yes
    K tasked:                   Yes
    wK tasked:                   No
    OpenMP threads:               1
    Memory (MB):               1430
    Algorithm:                 Core
    Schwarz Cutoff:           1E-12
    Mask sparsity (%):       0.5319
    Fitting Condition:        1E-12

   => Auxiliary Basis Set <=

  Basis Set: (DEF2-TZVP AUX)
    Blend: DEF2-TZVP-JKFIT
    Number of shells: 75
    Number of basis function: 229
    Number of Cartesian functions: 275
    Spherical Harmonics?: true
    Max angular momentum: 4

  Minimum eigenvalue in the overlap matrix is 2.5175785614E-04.
  Using Symmetric Orthogonalization.

  SCF Guess: Generalized Wolfsberg-Helmholtz.

  ==> Iterations <==

                           Total Energy        Delta E     RMS |[F,P]|

    Occupation by irrep:
             A1    A2    B1    B2 
    DOCC [     7,    0,    2,    1 ]
    SOCC [     0,    0,    0,    1 ]

   @DF-UKS iter   1:  -155.45743527921201   -1.55457e+02   3.47323e-01 
    Occupation by irrep:
             A1    A2    B1    B2 
    DOCC [     6,    0,    2,    2 ]
    SOCC [     1,    0,    0,    0 ]

   @DF-UKS iter   2:  -156.57775743527176   -1.12032e+00   6.99759e-02 DIIS
   @DF-UKS iter   3:  -146.30280194023015    1.02750e+01   1.19165e-01 DIIS
    Occupation by irrep:
             A1    A2    B1    B2 
    DOCC [     7,    0,    1,    2 ]
    SOCC [     0,    0,    1,    0 ]

   @DF-UKS iter   4:  -161.82606485851824   -1.55233e+01   6.22662e-02 DIIS
   @DF-UKS iter   5:  -166.93112920171717   -5.10506e+00   2.32402e-02 DIIS
   @DF-UKS iter   6:  -167.27096757494940   -3.39838e-01   1.37281e-02 DIIS
   @DF-UKS iter   7:  -167.50707486792533   -2.36107e-01   2.71418e-03 DIIS
   @DF-UKS iter   8:  -167.52164440530248   -1.45695e-02   1.34055e-03 DIIS
   @DF-UKS iter   9:  -167.52443760387831   -2.79320e-03   5.94521e-04 DIIS
   @DF-UKS iter  10:  -167.52599738576868   -1.55978e-03   2.48321e-04 DIIS
   @DF-UKS iter  11:  -167.52661602979916   -6.18644e-04   1.30235e-04 DIIS
   @DF-UKS iter  12:  -167.52678317240185   -1.67143e-04   6.38697e-05 DIIS
   @DF-UKS iter  13:  -167.52681019333772   -2.70209e-05   2.15621e-05 DIIS
   @DF-UKS iter  14:  -167.52681378509493   -3.59176e-06   6.53480e-06 DIIS
   @DF-UKS iter  15:  -167.52681401440185   -2.29307e-07   1.78841e-06 DIIS
   @DF-UKS iter  16:  -167.52681403532941   -2.09276e-08   8.73841e-07 DIIS
   @DF-UKS iter  17:  -167.52681404186234   -6.53293e-09   4.77402e-07 DIIS
   @DF-UKS iter  18:  -167.52681404432215   -2.45981e-09   2.51159e-07 DIIS
   @DF-UKS iter  19:  -167.52681404490590   -5.83753e-10   6.00326e-08 DIIS
   @DF-UKS iter  20:  -167.52681404493228   -2.63753e-11   1.09896e-08 DIIS
   @DF-UKS iter  21:  -167.52681404493279   -5.11591e-13   2.56004e-09 DIIS

  ==> Post-Iterations <==

   @Spin Contamination Metric:   3.879621939E-02
   @S^2 Expected:                7.500000000E-01
   @S^2 Observed:                7.887962194E-01
   @S   Expected:                5.000000000E-01
   @S   Observed:                5.000000000E-01

    Orbital Energies [Eh]
    ---------------------

    Alpha Occupied:                                                       

       1A1   -20.128012     2A1   -15.161014     3A1   -10.987233  
       4A1    -1.408172     5A1    -1.175170     6A1    -0.719463  
       1B1    -0.658140     1B2    -0.632649     7A1    -0.570022  
       2B1    -0.484209     2B2    -0.432657  

    Alpha Virtual:                                                        

       8A1     0.099916     3B1     0.123132     3B2     0.143964  
       9A1     0.220325     4B1     0.254502     4B2     0.260804  
      10A1     0.379888    11A1     0.429079     5B1     0.448864  
       5B2     0.466326    12A1     0.470576     6B1     0.629962  
       6B2     0.642838    13A1     0.670870     1A2     0.673751  
      14A1     0.680602    15A1     0.883530     7B1     1.051379  
       7B2     1.074355    16A1     1.089996     2A2     1.211590  
      17A1     1.212675    18A1     1.352919    19A1     1.445644  
       8B1     1.485350     8B2     1.491017    20A1     1.689939  
       9B1     1.691586     3A2     1.692175    21A1     1.707009  
       9B2     1.716761    10B1     2.081007    10B2     2.102846  
      22A1     2.138218    23A1     2.322654    11B1     2.500716  
      11B2     2.536001    24A1     2.587540    12B1     2.736718  
      12B2     2.736719    13B1     2.909883    13B2     2.928747  
      25A1     2.964057     4A2     2.964208     5A2     3.056094  
      26A1     3.056156    27A1     3.166275    14B1     3.254524  
      14B2     3.279544    28A1     3.375689    29A1     3.704824  
      15B1     3.764623    15B2     3.782337    16B2     4.093248  
      16B1     4.093257    30A1     4.450544     6A2     4.510861  
      31A1     4.515166    32A1     4.727183     7A2     4.728811  
      33A1     4.821401    17B1     5.179082    17B2     5.212800  
      18B1     5.322719    18B2     5.322734    19B1     5.548530  
      19B2     5.578299    34A1     5.621589     8A2     5.855437  
      35A1     5.855764    36A1     5.911486    37A1     6.522168  
       9A2     6.522195    20B1     6.781333    20B2     6.801048  
      21B1     7.060970    21B2     7.083214    38A1     7.307800  
      39A1     7.523811    40A1    24.282206    41A1    32.737788  
      42A1    44.993371  

    Beta Occupied:                                                        

       1A1   -20.114311     2A1   -15.140600     3A1   -10.992140  
       4A1    -1.380420     5A1    -1.103977     6A1    -0.701716  
       1B2    -0.627716     1B1    -0.566480     7A1    -0.536299  
       2B2    -0.406097  

    Beta Virtual:                                                         

       2B1    -0.099854     8A1     0.102652     3B2     0.147147  
       3B1     0.204019     9A1     0.224595     4B1     0.253759  
       4B2     0.257676    10A1     0.385551    11A1     0.433721  
       5B2     0.473161    12A1     0.473718     5B1     0.496019  
       6B2     0.646759     6B1     0.663411     1A2     0.677066  
      13A1     0.677479    14A1     0.687519    15A1     0.890765  
       7B2     1.077190     7B1     1.088165    16A1     1.108833  
       2A2     1.254015    17A1     1.256079    18A1     1.359175  
      19A1     1.446577     8B1     1.475389     8B2     1.483996  
      20A1     1.711735     3A2     1.714963    21A1     1.715457  
       9B2     1.721828     9B1     1.729995    10B2     2.108215  
      10B1     2.117558    22A1     2.146786    23A1     2.346647  
      11B2     2.549523    11B1     2.567675    24A1     2.595261  
      12B2     2.730261    12B1     2.730281    13B2     2.929711  
      13B1     2.936097     4A2     2.973062    25A1     2.973509  
       5A2     3.045349    26A1     3.045475    27A1     3.178472  
      14B2     3.284058    14B1     3.289888    28A1     3.381653  
      29A1     3.713084    15B1     3.779871    15B2     3.783032  
      16B2     4.139553    16B1     4.140277    30A1     4.470327  
       6A2     4.546665    31A1     4.548888     7A2     4.783284  
      32A1     4.786027    33A1     4.836429    17B2     5.220821  
      17B1     5.222836    18B2     5.344621    18B1     5.344671  
      19B1     5.580588    19B2     5.583396    34A1     5.637632  
       8A2     5.870721    35A1     5.871124    36A1     5.921945  
       9A2     6.556324    37A1     6.557095    20B1     6.800015  
      20B2     6.803684    21B2     7.087502    21B1     7.089340  
      38A1     7.319623    39A1     7.530579    40A1    24.279388  
      41A1    32.752195    42A1    45.001876  

    Final Occupation by Irrep:
             A1    A2    B1    B2 
    DOCC [     7,    0,    1,    2 ]
    SOCC [     0,    0,    1,    0 ]

  Energy converged.

  @DF-UKS Final Energy:  -167.52681404493279

   => Energetics <=

    Nuclear Repulsion Energy =             52.7872468185525037
    One-Electron Energy =                -332.0323479215599036
    Two-Electron Energy =                 118.2401180482154928
    DFT Exchange-Correlation Energy =      -6.5209380501408463
    Empirical Dispersion Energy =          -0.0008929400000000
    VV10 Nonlocal Energy =                  0.0000000000000000
    Total Energy =                       -167.5268140449327632


  UHF NO Occupations:
  HONO-2 :    2 B2 1.9985690
  HONO-1 :    1 B1 1.9835680
  HONO-0 :    2 B1 1.0000000
  LUNO+0 :    3 B1 0.0164320
  LUNO+1 :    3 B2 0.0014310
  LUNO+2 :    8 A1 0.0011902
  LUNO+3 :    9 A1 0.0002295



Properties will be evaluated at   0.000000,   0.000000,   0.000000 [a0]

Properties computed using the SCF density matrix

  Nuclear Dipole Moment: [e a0]
     X:     0.0000      Y:     0.0000      Z:    -0.0090

  Electronic Dipole Moment: [e a0]
     X:     0.0000      Y:     0.0000      Z:    -0.2963

  Dipole Moment: [e a0]
     X:     0.0000      Y:     0.0000      Z:    -0.3053     Total:     0.3053

  Dipole Moment: [D]
     X:     0.0000      Y:     0.0000      Z:    -0.7760     Total:     0.7760


*** tstop() called on linux-en55 at Sun Nov 25 06:18:21 2018
Module time:
	user time   =       6.44 seconds =       0.11 minutes
	system time =       0.02 seconds =       0.00 minutes
	total time  =          6 seconds =       0.10 minutes
Total time:
	user time   =      26.22 seconds =       0.44 minutes
	system time =       0.13 seconds =       0.00 minutes
	total time  =         26 seconds =       0.43 minutes

*** tstart() called on linux-en55
*** at Sun Nov 25 06:18:21 2018

   => Loading Basis Set <=

    Name: (DEF2-TZVP AUX)
    Role: RIFIT
    Keyword: DF_BASIS_MP2
    atoms 1 entry C          line   179 file /home/yuant/psi4conda/share/psi4/basis/def2-tzvp-ri.gbs 
    atoms 2 entry N          line   226 file /home/yuant/psi4conda/share/psi4/basis/def2-tzvp-ri.gbs 
    atoms 3 entry O          line   273 file /home/yuant/psi4conda/share/psi4/basis/def2-tzvp-ri.gbs 

	 --------------------------------------------------------
	                          DF-MP2                         
	      2nd-Order Density-Fitted Moller-Plesset Theory     
	              UMP2 Wavefunction,   1 Threads             
	                                                         
	        Rob Parrish, Justin Turney, Andy Simmonett,      
	           Ed Hohenstein, and C. David Sherrill          
	 --------------------------------------------------------

	 --------------------------------------------------------
	                 NBF =    93, NAUX =   228
	 --------------------------------------------------------
	   CLASS    FOCC     OCC    AOCC    AVIR     VIR    FVIR
	   ALPHA       0      11      11      82      82       0
	    BETA       0      10      10      83      83       0
	 --------------------------------------------------------

	-----------------------------------------------------------
	 ==================> DF-MP2 Energies <==================== 
	-----------------------------------------------------------
	 Reference Energy          =    -167.5268140449327916 [Eh]
	 Singles Energy            =      -0.0000000000000078 [Eh]
	 Same-Spin Energy          =      -0.1644345824097436 [Eh]
	 Opposite-Spin Energy      =      -0.4868324624678549 [Eh]
	 Correlation Energy        =      -0.6512670448776063 [Eh]
	 Total Energy              =    -168.1780810898104050 [Eh]
	-----------------------------------------------------------
	 ================> DF-SCS-MP2 Energies <================== 
	-----------------------------------------------------------
	 SCS Same-Spin Scale       =       0.2200000000000000 [-]
	 SCS Opposite-Spin Scale   =       0.5200000000000000 [-]
	 SCS Same-Spin Energy      =      -0.0361756081301436 [Eh]
	 SCS Opposite-Spin Energy  =      -0.2531528804832846 [Eh]
	 SCS Correlation Energy    =      -0.2893284886134360 [Eh]
	 SCS Total Energy          =    -167.8161425335462411 [Eh]
	-----------------------------------------------------------



    DSD-PBEP86-D3BJ Energy Summary
    -------------------------
    DFT Reference Energy                  =  -167.5268140449327916
    Scaled MP2 Correlation                =    -0.2893284886134360
    @Final double-hybrid DFT total energy =  -167.8161425335462411


*** tstop() called on linux-en55 at Sun Nov 25 06:18:22 2018
Module time:
	user time   =       0.19 seconds =       0.00 minutes
	system time =       0.00 seconds =       0.00 minutes
	total time  =          1 seconds =       0.02 minutes
Total time:
	user time   =      26.41 seconds =       0.44 minutes
	system time =       0.13 seconds =       0.00 minutes
	total time  =         27 seconds =       0.45 minutes

  //>>>>>>>>>>>>>>>>>>>>>>>>>>>>>>>>>>>//
  //    Loading displacement 5 of 5    //
  //<<<<<<<<<<<<<<<<<<<<<<<<<<<<<<<<<<<//

*** tstart() called on linux-en55
*** at Sun Nov 25 06:18:22 2018

   => Loading Basis Set <=

    Name: DEF2-TZVP
    Role: ORBITAL
    Keyword: BASIS
    atoms 1 entry C          line   123 file /home/yuant/psi4conda/share/psi4/basis/def2-tzvp.gbs 
    atoms 2 entry N          line   156 file /home/yuant/psi4conda/share/psi4/basis/def2-tzvp.gbs 
    atoms 3 entry O          line   189 file /home/yuant/psi4conda/share/psi4/basis/def2-tzvp.gbs 


         ---------------------------------------------------------
                                   SCF
            by Justin Turney, Rob Parrish, Andy Simmonett
                             and Daniel Smith
                              UKS Reference
                        1 Threads,   1907 MiB Core
         ---------------------------------------------------------

  ==> Geometry <==

    Molecular point group: c2v
    Full point group: C_inf_v

    Geometry (in Angstrom), charge = 0, multiplicity = 2:

       Center              X                  Y                   Z               Mass       
    ------------   -----------------  -----------------  -----------------  -----------------
         C            0.000000000000     0.000000000000     0.031201530587    12.000000000000
         N            0.000000000000     0.000000000000     1.251201530587    14.003074004780
         O            0.000000000000     0.000000000000    -1.118798469413    15.994914619560

  Running in c2v symmetry.

  Rotational constants: A = ************  B =      0.40181  C =      0.40181 [cm^-1]
  Rotational constants: A = ************  B =  12045.86496  C =  12045.86496 [MHz]
  Nuclear repulsion =   52.808737832140011

  Charge       = 0
  Multiplicity = 2
  Electrons    = 21
  Nalpha       = 11
  Nbeta        = 10

  ==> Algorithm <==

  SCF Algorithm Type is DF.
  DIIS enabled.
  MOM disabled.
  Fractional occupation disabled.
  Guess Type is GWH.
  Energy threshold   = 1.00e-08
  Density threshold  = 1.00e-08
  Integral threshold = 0.00e+00

  ==> Primary Basis <==

  Basis Set: DEF2-TZVP
    Blend: DEF2-TZVP
    Number of shells: 33
    Number of basis function: 93
    Number of Cartesian functions: 108
    Spherical Harmonics?: true
    Max angular momentum: 3

  ==> DFT Potential <==

   => Composite Functional: DSD-PBEP86-D3BJ <= 

    DSD-PBEP86-D3BJ Dispersion-corrected SCS Double Hybrid XC Functional

    S. Kozuch, J.M.L. Martin, J. Comp. Chem., 34, 2327-2344, 2013


    Deriv               =              1
    GGA                 =           TRUE
    Meta                =          FALSE

    Exchange Hybrid     =           TRUE
    MP2 Hybrid          =           TRUE

   => Exchange Functionals <=

    0.3100     XC_GGA_X_PBE

   => Exact (HF) Exchange <=

    0.6900               HF 

   => Correlation Functionals <=

    0.4400     XC_GGA_C_P86

   => MP2 Correlation <=

    MP2 SCS Hybrid      =           TRUE
    MP2 OS Alpha        =       0.520000
    MP2 SS Alpha        =       0.220000

   => Molecular Quadrature <=

    Radial Scheme       =       TREUTLER
    Pruning Scheme      =           FLAT
    Nuclear Scheme      =       TREUTLER

    BS radius alpha     =              1
    Pruning alpha       =              1
    Radial Points       =             75
    Spherical Points    =            302
    Total Points        =          65923
    Total Blocks        =            569
    Max Points          =            255
    Max Functions       =             92

   => -D3BJ: Empirical Dispersion <=

    Grimme's -D3 (BJ-damping) Dispersion Correction
    Grimme S.; Ehrlich S.; Goerigk L. (2011), J. Comput. Chem., 32: 1456
    Parametrisation from: 
    S. Kozuch, J.M.L. Martin, J. Comp. Chem., 34, 2327-2344, 2013


        S6 =   4.800000E-01
        S8 =   0.000000E+00
        A1 =   0.000000E+00
        A2 =   5.600000E+00

   => Loading Basis Set <=

    Name: (DEF2-TZVP AUX)
    Role: JKFIT
    Keyword: DF_BASIS_SCF
    atoms 1 entry C          line   203 file /home/yuant/psi4conda/share/psi4/basis/def2-tzvp-jkfit.gbs 
    atoms 2 entry N          line   263 file /home/yuant/psi4conda/share/psi4/basis/def2-tzvp-jkfit.gbs 
    atoms 3 entry O          line   323 file /home/yuant/psi4conda/share/psi4/basis/def2-tzvp-jkfit.gbs 

  ==> Pre-Iterations <==

   -------------------------------------------------------
    Irrep   Nso     Nmo     Nalpha   Nbeta   Ndocc  Nsocc
   -------------------------------------------------------
     A1        42      42       0       0       0       0
     A2         9       9       0       0       0       0
     B1        21      21       0       0       0       0
     B2        21      21       0       0       0       0
   -------------------------------------------------------
    Total      93      93      11      10      10       1
   -------------------------------------------------------

  ==> Integral Setup <==

  ==> MemDFJK: Density-Fitted J/K Matrices <==

    J tasked:                   Yes
    K tasked:                   Yes
    wK tasked:                   No
    OpenMP threads:               1
    Memory (MB):               1430
    Algorithm:                 Core
    Schwarz Cutoff:           1E-12
    Mask sparsity (%):       0.5319
    Fitting Condition:        1E-12

   => Auxiliary Basis Set <=

  Basis Set: (DEF2-TZVP AUX)
    Blend: DEF2-TZVP-JKFIT
    Number of shells: 75
    Number of basis function: 229
    Number of Cartesian functions: 275
    Spherical Harmonics?: true
    Max angular momentum: 4

  Minimum eigenvalue in the overlap matrix is 2.5096215792E-04.
  Using Symmetric Orthogonalization.

  SCF Guess: Generalized Wolfsberg-Helmholtz.

  ==> Iterations <==

                           Total Energy        Delta E     RMS |[F,P]|

    Occupation by irrep:
             A1    A2    B1    B2 
    DOCC [     7,    0,    1,    2 ]
    SOCC [     0,    0,    1,    0 ]

   @DF-UKS iter   1:  -155.45887877061170   -1.55459e+02   3.47297e-01 
    Occupation by irrep:
             A1    A2    B1    B2 
    DOCC [     6,    0,    2,    2 ]
    SOCC [     1,    0,    0,    0 ]

   @DF-UKS iter   2:  -156.58802788799881   -1.12915e+00   6.99628e-02 DIIS
   @DF-UKS iter   3:  -146.32341045656824    1.02646e+01   1.19151e-01 DIIS
    Occupation by irrep:
             A1    A2    B1    B2 
    DOCC [     7,    0,    2,    1 ]
    SOCC [     0,    0,    0,    1 ]

   @DF-UKS iter   4:  -161.83769616836611   -1.55143e+01   6.22401e-02 DIIS
   @DF-UKS iter   5:  -166.93187437788919   -5.09418e+00   2.32255e-02 DIIS
   @DF-UKS iter   6:  -167.27182469131921   -3.39950e-01   1.37040e-02 DIIS
   @DF-UKS iter   7:  -167.50709596769178   -2.35271e-01   2.71506e-03 DIIS
   @DF-UKS iter   8:  -167.52166313684515   -1.45672e-02   1.33820e-03 DIIS
[...]

   => Exchange Functionals <=

    0.3100     XC_GGA_X_PBE

   => Exact (HF) Exchange <=

    0.6900               HF 

   => Correlation Functionals <=

    0.4400     XC_GGA_C_P86

   => MP2 Correlation <=

    MP2 SCS Hybrid      =           TRUE
    MP2 OS Alpha        =       0.520000
    MP2 SS Alpha        =       0.220000

   => Molecular Quadrature <=

    Radial Scheme       =       TREUTLER
    Pruning Scheme      =           FLAT
    Nuclear Scheme      =       TREUTLER

    BS radius alpha     =              1
    Pruning alpha       =              1
    Radial Points       =             75
    Spherical Points    =            302
    Total Points        =          65931
    Total Blocks        =            563
    Max Points          =            256
    Max Functions       =             92

   => -D3BJ: Empirical Dispersion <=

    Grimme's -D3 (BJ-damping) Dispersion Correction
    Grimme S.; Ehrlich S.; Goerigk L. (2011), J. Comput. Chem., 32: 1456
    Parametrisation from: 
    S. Kozuch, J.M.L. Martin, J. Comp. Chem., 34, 2327-2344, 2013


        S6 =   4.800000E-01
        S8 =   0.000000E+00
        A1 =   0.000000E+00
        A2 =   5.600000E+00

   => Loading Basis Set <=

    Name: (DEF2-TZVP AUX)
    Role: JKFIT
    Keyword: DF_BASIS_SCF
    atoms 1 entry C          line   203 file /home/yuant/psi4conda/share/psi4/basis/def2-tzvp-jkfit.gbs 
    atoms 2 entry N          line   263 file /home/yuant/psi4conda/share/psi4/basis/def2-tzvp-jkfit.gbs 
    atoms 3 entry O          line   323 file /home/yuant/psi4conda/share/psi4/basis/def2-tzvp-jkfit.gbs 

  Reading orbitals from file 180, no projection.

  ==> Pre-Iterations <==

   -------------------------------------------------------
    Irrep   Nso     Nmo     Nalpha   Nbeta   Ndocc  Nsocc
   -------------------------------------------------------
     A1        42      42       0       0       0       0
     A2         9       9       0       0       0       0
     B1        21      21       0       0       0       0
     B2        21      21       0       0       0       0
   -------------------------------------------------------
    Total      93      93      11      10      10       1
   -------------------------------------------------------

  ==> Integral Setup <==

  ==> MemDFJK: Density-Fitted J/K Matrices <==

    J tasked:                   Yes
    K tasked:                   Yes
    wK tasked:                   No
    OpenMP threads:               1
    Memory (MB):               1430
    Algorithm:                 Core
    Schwarz Cutoff:           1E-12
    Mask sparsity (%):       0.6475
    Fitting Condition:        1E-12

   => Auxiliary Basis Set <=

  Basis Set: (DEF2-TZVP AUX)
    Blend: DEF2-TZVP-JKFIT
    Number of shells: 75
    Number of basis function: 229
    Number of Cartesian functions: 275
    Spherical Harmonics?: true
    Max angular momentum: 4

  Minimum eigenvalue in the overlap matrix is 2.7752296845E-04.
  Using Symmetric Orthogonalization.

  SCF Guess: Orbitals guess was supplied from a previous computation.

  ==> Iterations <==

                           Total Energy        Delta E     RMS |[F,P]|

   @DF-UKS iter   0:  -167.52709309507173   -1.67527e+02   4.67001e-05 
   @DF-UKS iter   1:  -167.52584152298206    1.25157e-03   9.04274e-06 
   @DF-UKS iter   2:  -167.52584152780562   -4.82356e-09   7.10596e-06 DIIS
   @DF-UKS iter   3:  -167.52584163858756   -1.10782e-07   1.21066e-06 DIIS
   @DF-UKS iter   4:  -167.52584164061651   -2.02894e-09   5.23952e-07 DIIS
   @DF-UKS iter   5:  -167.52584164116064   -5.44134e-10   3.22013e-07 DIIS
   @DF-UKS iter   6:  -167.52584164138494   -2.24304e-10   1.33389e-07 DIIS
   @DF-UKS iter   7:  -167.52584164153947   -1.54529e-10   7.26195e-08 DIIS
   @DF-UKS iter   8:  -167.52584164160746   -6.79847e-11   2.80564e-08 DIIS
   @DF-UKS iter   9:  -167.52584164161647   -9.00968e-12   9.25108e-09 DIIS

  ==> Post-Iterations <==

   @Spin Contamination Metric:   4.396632183E-02
   @S^2 Expected:                7.500000000E-01
   @S^2 Observed:                7.939663218E-01
   @S   Expected:                5.000000000E-01
   @S   Observed:                5.000000000E-01

    Orbital Energies [Eh]
    ---------------------

    Alpha Occupied:                                                       

       1A1   -20.130838     2A1   -15.166220     3A1   -10.992986  
       4A1    -1.398105     5A1    -1.170315     6A1    -0.718487  
       1B2    -0.651902     1B1    -0.625887     7A1    -0.571588  
       2B2    -0.484972     2B1    -0.433330  

    Alpha Virtual:                                                        

       8A1     0.098616     3B2     0.114000     3B1     0.134432  
       9A1     0.220545     4B2     0.256213     4B1     0.262314  
      10A1     0.376438    11A1     0.417702     5B2     0.448776  
       5B1     0.466285    12A1     0.468983     6B2     0.627268  
       6B1     0.640215    13A1     0.670250     1A2     0.674909  
      14A1     0.679157    15A1     0.883121     7B2     1.038178  
      16A1     1.055027     7B1     1.060807     2A2     1.209240  
      17A1     1.210086    18A1     1.344314    19A1     1.444688  
       8B2     1.493193     8B1     1.498331     9B2     1.682798  
      20A1     1.683050     3A2     1.684427     9B1     1.707860  
      21A1     1.708578    10B2     2.079210    10B1     2.101578  
      22A1     2.126821    23A1     2.315875    11B2     2.497244  
      11B1     2.532296    24A1     2.559529    12B2     2.738440  
      12B1     2.738441    13B2     2.906457    13B1     2.924869  
      25A1     2.956475     4A2     2.956600     5A2     3.053842  
      26A1     3.053906    27A1     3.159455    14B2     3.218053  
      14B1     3.243138    28A1     3.367779    29A1     3.657572  
      15B2     3.753089    15B1     3.770784    16B1     4.089329  
      16B2     4.089337    30A1     4.447928     6A2     4.490864  
      31A1     4.496478    32A1     4.721349     7A2     4.723778  
      33A1     4.780144    17B2     5.161148    17B1     5.195129  
      18B2     5.320617    18B1     5.320629    19B2     5.524353  
      19B1     5.553289    34A1     5.600040     8A2     5.815942  
      35A1     5.816230    36A1     5.849454    37A1     6.516349  
       9A2     6.516403    20B2     6.763536    20B1     6.783828  
      21B2     7.047434    21B1     7.070154    38A1     7.227873  
      39A1     7.468102    40A1    24.141645    41A1    32.723382  
      42A1    44.956188  

    Beta Occupied:                                                        

       1A1   -20.116625     2A1   -15.145613     3A1   -10.998299  
       4A1    -1.369009     5A1    -1.099251     6A1    -0.700478  
       1B1    -0.620988     1B2    -0.558417     7A1    -0.538071  
       2B1    -0.406012  

    Beta Virtual:                                                         

       2B2    -0.101168     8A1     0.101235     3B1     0.137186  
       3B2     0.195004     9A1     0.224902     4B2     0.255041  
       4B1     0.258982    10A1     0.382408    11A1     0.421571  
      12A1     0.472029     5B1     0.473450     5B2     0.496318  
       6B1     0.644182     6B2     0.660835     1A2     0.677234  
      13A1     0.677593    14A1     0.684347    15A1     0.890517  
       7B1     1.063434    16A1     1.073392     7B2     1.074476  
       2A2     1.251913    17A1     1.253801    18A1     1.349557  
      19A1     1.445674     8B2     1.481925     8B1     1.490596  
       3A2     1.707835    20A1     1.708293     9B1     1.713072  
      21A1     1.714514     9B2     1.721065    10B1     2.107400  
      10B2     2.117320    22A1     2.135597    23A1     2.340082  
      11B1     2.546144    11B2     2.564295    24A1     2.567293  
      12B1     2.730849    12B2     2.730868    13B1     2.925514  
      13B2     2.931609     4A2     2.965428    25A1     2.965884  
       5A2     3.040967    26A1     3.041062    27A1     3.171814  
      14B1     3.247655    14B2     3.254093    28A1     3.373568  
      29A1     3.665385    15B2     3.768305    15B1     3.771451  
      16B1     4.135929    16B2     4.136639    30A1     4.469171  
       6A2     4.526415    31A1     4.528653     7A2     4.779331  
      32A1     4.780945    33A1     4.796021    17B1     5.203868  
      17B2     5.206752    18B1     5.343343    18B2     5.343398  
      19B2     5.554877    19B1     5.558145    34A1     5.615947  
       8A2     5.831581    35A1     5.831978    36A1     5.860195  
       9A2     6.551943    37A1     6.552770    20B2     6.783353  
      20B1     6.786706    21B1     7.074528    21B2     7.076424  
      38A1     7.239580    39A1     7.475788    40A1    24.138467  
      41A1    32.737918    42A1    44.965020  

    Final Occupation by Irrep:
             A1    A2    B1    B2 
    DOCC [     7,    0,    2,    1 ]
    SOCC [     0,    0,    0,    1 ]

  Energy converged.

  @DF-UKS Final Energy:  -167.52584164161647

   => Energetics <=

    Nuclear Repulsion Energy =             52.0953682566801248
    One-Electron Energy =                -330.6820420279562995
    Two-Electron Energy =                 117.5733717271188965
    DFT Exchange-Correlation Energy =      -6.5116501974591587
    Empirical Dispersion Energy =          -0.0008894000000000
    VV10 Nonlocal Energy =                  0.0000000000000000
    Total Energy =                       -167.5258416416164380


  UHF NO Occupations:
  HONO-2 :    2 B1 1.9982922
  HONO-1 :    1 B2 1.9812786
  HONO-0 :    2 B2 1.0000000
  LUNO+0 :    3 B2 0.0187214
  LUNO+1 :    3 B1 0.0017078
  LUNO+2 :    8 A1 0.0011981
  LUNO+3 :    9 A1 0.0002581



Properties will be evaluated at   0.000000,   0.000000,   0.000000 [a0]

Properties computed using the SCF density matrix

  Nuclear Dipole Moment: [e a0]
     X:     0.0000      Y:     0.0000      Z:    -0.0091

  Electronic Dipole Moment: [e a0]
     X:     0.0000      Y:     0.0000      Z:    -0.2750

  Dipole Moment: [e a0]
     X:     0.0000      Y:     0.0000      Z:    -0.2841     Total:     0.2841

  Dipole Moment: [D]
     X:     0.0000      Y:     0.0000      Z:    -0.7222     Total:     0.7222


*** tstop() called on linux-en55 at Sun Nov 25 06:19:36 2018
Module time:
	user time   =       4.85 seconds =       0.08 minutes
	system time =       0.02 seconds =       0.00 minutes
	total time  =          5 seconds =       0.08 minutes
Total time:
	user time   =      99.22 seconds =       1.65 minutes
	system time =       0.53 seconds =       0.01 minutes
	total time  =        101 seconds =       1.68 minutes

*** tstart() called on linux-en55
*** at Sun Nov 25 06:19:36 2018

   => Loading Basis Set <=

    Name: (DEF2-TZVP AUX)
    Role: RIFIT
    Keyword: DF_BASIS_MP2
    atoms 1 entry C          line   179 file /home/yuant/psi4conda/share/psi4/basis/def2-tzvp-ri.gbs 
    atoms 2 entry N          line   226 file /home/yuant/psi4conda/share/psi4/basis/def2-tzvp-ri.gbs 
    atoms 3 entry O          line   273 file /home/yuant/psi4conda/share/psi4/basis/def2-tzvp-ri.gbs 

	 --------------------------------------------------------
	                          DF-MP2                         
	      2nd-Order Density-Fitted Moller-Plesset Theory     
	              UMP2 Wavefunction,   1 Threads             
	                                                         
	        Rob Parrish, Justin Turney, Andy Simmonett,      
	           Ed Hohenstein, and C. David Sherrill          
	 --------------------------------------------------------

	 --------------------------------------------------------
	                 NBF =    93, NAUX =   228
	 --------------------------------------------------------
	   CLASS    FOCC     OCC    AOCC    AVIR     VIR    FVIR
	   ALPHA       0      11      11      82      82       0
	    BETA       0      10      10      83      83       0
	 --------------------------------------------------------

	-----------------------------------------------------------
	 ==================> DF-MP2 Energies <==================== 
	-----------------------------------------------------------
	 Reference Energy          =    -167.5258416416164664 [Eh]
	 Singles Energy            =      -0.0000000000012015 [Eh]
	 Same-Spin Energy          =      -0.1657544919584843 [Eh]
	 Opposite-Spin Energy      =      -0.4899174564512774 [Eh]
	 Correlation Energy        =      -0.6556719484109632 [Eh]
	 Total Energy              =    -168.1815135900274356 [Eh]
	-----------------------------------------------------------
	 ================> DF-SCS-MP2 Energies <================== 
	-----------------------------------------------------------
	 SCS Same-Spin Scale       =       0.2200000000000000 [-]
	 SCS Opposite-Spin Scale   =       0.5200000000000000 [-]
	 SCS Same-Spin Energy      =      -0.0364659882308665 [Eh]
	 SCS Opposite-Spin Energy  =      -0.2547570773546642 [Eh]
	 SCS Correlation Energy    =      -0.2912230655867323 [Eh]
	 SCS Total Energy          =    -167.8170647072032011 [Eh]
	-----------------------------------------------------------



    DSD-PBEP86-D3BJ Energy Summary
    -------------------------
    DFT Reference Energy                  =  -167.5258416416164664
    Scaled MP2 Correlation                =    -0.2912230655867323
    @Final double-hybrid DFT total energy =  -167.8170647072032011


*** tstop() called on linux-en55 at Sun Nov 25 06:19:36 2018
Module time:
	user time   =       0.21 seconds =       0.00 minutes
	system time =       0.00 seconds =       0.00 minutes
	total time  =          0 seconds =       0.00 minutes
Total time:
	user time   =      99.43 seconds =       1.66 minutes
	system time =       0.53 seconds =       0.01 minutes
	total time  =        101 seconds =       1.68 minutes

-------------------------------------------------------------

  Computing gradient from energies (fd_1_0).
	Using 3-point formula.
	Energy without displacement: -167.8170647072
	Check energies below for precision!
	Forces are for mass-weighted, symmetry-adapted cartesians (in au).

	 Coord      Energy(-)        Energy(+)        Force
	    0   -167.8170620316  -167.8170630421    -0.0001010552
	    1   -167.8170639391  -167.8170638499     0.0000089177

	Gradient written.

-------------------------------------------------------------
  ## F-D gradient (Symmetry 0) ##
  Irrep: 1 Size: 3 x 3

                 1                   2                   3

    1     0.00000000000000     0.00000000000000    -0.00029585654235
    2     0.00000000000000     0.00000000000000     0.00016247344736
    3     0.00000000000000     0.00000000000000     0.00013338309498




			-----------------------------------------
			 OPTKING 2.0: for geometry optimizations 
			  - R.A. King,  Bethel University        
			-----------------------------------------

	Previous internal coordinate definitions found.
	---Fragment 1 Geometry and Gradient---
	 C           0.0000000000        0.0000000000        0.0640548245
	 N          -0.0000000000        0.0000000000        2.3944887109
	 O          -0.0000000000        0.0000000000       -2.1443603378
	             0.0000000000        0.0000000000       -0.0002958565
	             0.0000000000        0.0000000000        0.0001624734
	             0.0000000000        0.0000000000        0.0001333831

	---Fragment 1 Intrafragment Coordinates---
	 - Coordinate -           - BOHR/RAD -       - ANG/DEG -
	 R(1,2)           =         2.330434	       1.233212
	 R(1,3)           =         2.208415	       1.168643
	 L(2,1,3)         =         3.141593	     180.000000
	 l(2,1,3)         =         3.141593	     180.000000

	Current energy   :      -167.8170647072

	Energy change for the previous step:
		Projected    :        -0.0000004128
		Actual       :        -0.0000003232
	Energy ratio indicates good step: Trust radius increased to 1.000e+00.


	Performing BFGS update.
	Previous computed or guess Hessian on step 1.
	Steps to be used in Hessian update: 3 2
	Taking RFO optimization step.
	Going to follow RFO solution 1.
	Using RFO vector 1.
	Norm of target step-size    0.00030
	Projected energy change by RFO approximation:        -0.0000000629

	Back-transformation to cartesian coordinates...
	Successfully converged to displaced geometry.

	--- Internal Coordinate Step in ANG or DEG, aJ/ANG or AJ/DEG ---
	 ---------------------------------------------------------------------------
	   Coordinate                Previous        Force       Change         New 
	   ----------                --------       ------       ------       ------
	    1 R(1,2)          =      1.233212    -0.001339    -0.000134     1.233078
	    2 R(1,3)          =      1.168643     0.001099     0.000086     1.168729
	    3 L(2,1,3)        =    180.000000    -0.000000     0.000000   180.000000
	    4 l(2,1,3)        =    180.000000     0.000000     0.000000   180.000000
	 ---------------------------------------------------------------------------
	Successfully symmetrized geometry.

  ==> Convergence Check <==

  Measures of convergence in internal coordinates in au.
  Criteria marked as inactive (o), active & met (*), and active & unmet ( ).
  ---------------------------------------------------------------------------------------------
   Step     Total Energy     Delta E     MAX Force     RMS Force      MAX Disp      RMS Disp   
  ---------------------------------------------------------------------------------------------
    Convergence Criteria    1.00e-06 *    3.00e-04 *             o    1.20e-03 *             o
  ---------------------------------------------------------------------------------------------
      4    -167.81706471   -3.23e-07 *    1.62e-04 *    1.05e-04 o    2.54e-04 *    1.51e-04 o  ~
  ---------------------------------------------------------------------------------------------


  **** Optimization is complete! (in 4 steps) ****

  ==> Optimization Summary <==

  Measures of convergence in internal coordinates in au.
  --------------------------------------------------------------------------------------------------------------- ~
   Step         Total Energy             Delta E       MAX Force       RMS Force        MAX Disp        RMS Disp  ~
  --------------------------------------------------------------------------------------------------------------- ~
      1    -167.816086816178   -167.816086816178      0.04054524      0.02318887      0.03009085      0.01910931  ~
      2    -167.817049491865     -0.000962675687      0.00547529      0.00283141      0.00462591      0.00247043  ~
      3    -167.817064383961     -0.000014892096      0.00060198      0.00033945      0.00051335      0.00030529  ~
      4    -167.817064707203     -0.000000323243      0.00016247      0.00010511      0.00025402      0.00015065  ~
  --------------------------------------------------------------------------------------------------------------- ~

	Writing optimization data to binary file.
	Final energy is   -167.8170647072032
	Final (previous) structure:
	Cartesian Geometry (in Angstrom)
	    C     0.0000000000   0.0000000000   0.0338963532
	    N    -0.0000000000   0.0000000000   1.2671088520
	    O    -0.0000000000   0.0000000000  -1.1347466178
	Saving final (previous) structure.
	Removing binary optimization data file.
			--------------------------
			 OPTKING Finished Execution 
			--------------------------

    Final optimized geometry and variables:
    Molecular point group: c2v
    Full point group: C_inf_v

    Geometry (in Angstrom), charge = 0, multiplicity = 2:

    C            0.000000000000    -0.000000000000     0.033896353230
    N            0.000000000000     0.000000000000     1.267108852048
    O            0.000000000000     0.000000000000    -1.134746617772

	Removing binary optimization data file.
	Cleaning optimization helper files.

    Psi4 stopped on: Sunday, 25 November 2018 06:19AM
    Psi4 wall time for execution: 0:01:41.45

*** Psi4 exiting successfully. Buy a developer a beer!
