
    -----------------------------------------------------------------------
          Psi4: An Open-Source Ab Initio Electronic Structure Package
                               Psi4 1.2 release

                         Git: Rev {HEAD} 9d4a61c 


    R. M. Parrish, L. A. Burns, D. G. A. Smith, A. C. Simmonett,
    A. E. DePrince III, E. G. Hohenstein, U. Bozkaya, A. Yu. Sokolov,
    R. Di Remigio, R. M. Richard, J. F. Gonthier, A. M. James,
    H. R. McAlexander, A. Kumar, M. Saitow, X. Wang, B. P. Pritchard,
    P. Verma, H. F. Schaefer III, K. Patkowski, R. A. King, E. F. Valeev,
    F. A. Evangelista, J. M. Turney, T. D. Crawford, and C. D. Sherrill,
    J. Chem. Theory Comput. 13(7) pp 3185--3197 (2017).
    (doi: 10.1021/acs.jctc.7b00174)


                         Additional Contributions by
    P. Kraus, H. Kruse, M. H. Lechner, M. C. Schieber, and R. A. Shaw

    -----------------------------------------------------------------------


    Psi4 started on: Wednesday, 09 January 2019 03:13AM

    Process ID: 5544
    Host:       linux-en55
    PSIDATADIR: /home/yuant/psi4conda/share/psi4
    Memory:     500.0 MiB
    Threads:    1
    
  ==> Input File <==

--------------------------------------------------------------------------
molecule NCOAr{
  0 1
  Ar 0.0 0.0 R
  --
  0 2
  C 0.0 0.0 0.0
  N 0.0 0.0 1.231991
  O 0.0 0.0 -1.175455
}

autocm = 219474.63067

table=Table(rows=["R"], cols=["Interaction Energy"])

set {
  basis = def2-TZVPD
  reference = UKS
  basis_guess def2-SVP
  guess sad
}
R = 4.0
for i in range(16):
  NCOAr.R = -R - 0.036898
  energy('B3LYP-D3BJ', bsse_type='cp')
  eint = get_variable('CP-CORRECTED 2-BODY INTERACTION ENERGY') * autocm
  table[R] = [eint]
  R += 0.2

print(table)--------------------------------------------------------------------------
Molecule: geometry: Molecule is not complete, please use 'update_geometry'
                    once all variables are set.

Molecule: Setting a variable updates the molecular geometry, for
          cartesian molecules this can lead to surprising behaviour.
          Freezing COM and orientation to prevent this.

Molecule: Setting geometry variable R to -4.036898


   ===> N-Body Interaction Abacus <===
        BSSE Treatment:                     cp
        Number of 1-body computations:     2
        Number of 2-body computations:     1

   ==> N-Body: Now computing 1-body complexes <==


       N-Body: Computing complex (1/2) with fragments (2,) in the basis of fragments (1, 2).


*** tstart() called on linux-en55
*** at Wed Jan  9 03:13:30 2019


  //>>>>>>>>>>>>>>>>>>>>>>>>>>>>>>>>>>>//
  //     Guess SCF, DEF2-SVP Basis     //
  //<<<<<<<<<<<<<<<<<<<<<<<<<<<<<<<<<<<//

   => Loading Basis Set <=

    Name: DEF2-SVP
    Role: ORBITAL
    Keyword: BASIS
    atoms 1 entry AR         line   384 file /home/yuant/psi4conda/share/psi4/basis/def2-svp.gbs 
    atoms 2 entry C          line    90 file /home/yuant/psi4conda/share/psi4/basis/def2-svp.gbs 
    atoms 3 entry N          line   110 file /home/yuant/psi4conda/share/psi4/basis/def2-svp.gbs 
    atoms 4 entry O          line   130 file /home/yuant/psi4conda/share/psi4/basis/def2-svp.gbs 


         ---------------------------------------------------------
                           SCF Castup computation                  
         ---------------------------------------------------------
                                   SCF
            by Justin Turney, Rob Parrish, Andy Simmonett
                             and Daniel Smith
                              UKS Reference
                        1 Threads,    500 MiB Core
         ---------------------------------------------------------

  ==> Geometry <==

    Molecular point group: c2v
    Full point group: C_inf_v

    Geometry (in Angstrom), charge = 0, multiplicity = 2:

       Center              X                  Y                   Z               Mass       
    ------------   -----------------  -----------------  -----------------  -----------------
      Gh(AR)          0.000000000000     0.000000000000    -4.036898000000    39.962383122510
         C            0.000000000000     0.000000000000     0.000000000000    12.000000000000
         N            0.000000000000     0.000000000000     1.231991000000    14.003074004780
         O            0.000000000000     0.000000000000    -1.175455000000    15.994914619560

  Running in c2v symmetry.

  Rotational constants: A = ************  B =      0.02427  C =      0.02427 [cm^-1]
  Rotational constants: A = ************  B =    727.57989  C =    727.57989 [MHz]
  Nuclear repulsion =   51.958626714411572

  Charge       = 0
  Multiplicity = 2
  Electrons    = 21
  Nalpha       = 11
  Nbeta        = 10

  ==> Algorithm <==

  SCF Algorithm Type is DF.
  DIIS enabled.
  MOM disabled.
  Fractional occupation disabled.
  Guess Type is SAD.
  Energy threshold   = 1.00e-06
  Density threshold  = 1.00e-06
  Integral threshold = 0.00e+00

  ==> Primary Basis <==

  Basis Set: DEF2-SVP
    Blend: DEF2-SVP
    Number of shells: 26
    Number of basis function: 60
    Number of Cartesian functions: 64
    Spherical Harmonics?: true
    Max angular momentum: 2

  ==> DFT Potential <==

   => Composite Functional: B3LYP-D3BJ <= 

    B3LYP-d3bj Hyb-GGA Exchange-Correlation Functional

    P. J. Stephens, F. J. Devlin, C. F. Chabalowski, and M. J. Frisch, J. Phys. Chem. 98, 11623 (1994)

    Deriv               =              1
    GGA                 =           TRUE
    Meta                =          FALSE

    Exchange Hybrid     =           TRUE
    MP2 Hybrid          =          FALSE

   => Exchange Functionals <=

    0.0800   Slater exchange
    0.7200         Becke 88

   => Exact (HF) Exchange <=

    0.2000               HF 

   => Correlation Functionals <=

    0.1900   Vosko, Wilk & Nusair (VWN5_RPA)
    0.8100   Lee, Yang & Parr

   => Molecular Quadrature <=

    Radial Scheme       =       TREUTLER
    Pruning Scheme      =           FLAT
    Nuclear Scheme      =       TREUTLER

    BS radius alpha     =              1
    Pruning alpha       =              1
    Radial Points       =             75
    Spherical Points    =            302
    Total Points        =          86150
    Total Blocks        =            712
    Max Points          =            255
    Max Functions       =             58

   => -D3BJ: Empirical Dispersion <=

    Grimme's -D3 (BJ-damping) Dispersion Correction
    Grimme S.; Ehrlich S.; Goerigk L. (2011), J. Comput. Chem., 32: 1456

        S6 =   1.000000E+00
        S8 =   1.988900E+00
        A1 =   3.981000E-01
        A2 =   4.421100E+00

   => Loading Basis Set <=

    Name: (DEF2-SVP AUX)
    Role: JKFIT
    Keyword: DF_BASIS_SCF
    atoms 1 entry AR         line  1074 file /home/yuant/psi4conda/share/psi4/basis/def2-svp-jkfit.gbs 
    atoms 2 entry C          line   203 file /home/yuant/psi4conda/share/psi4/basis/def2-svp-jkfit.gbs 
    atoms 3 entry N          line   263 file /home/yuant/psi4conda/share/psi4/basis/def2-svp-jkfit.gbs 
    atoms 4 entry O          line   323 file /home/yuant/psi4conda/share/psi4/basis/def2-svp-jkfit.gbs 

  ==> Pre-Iterations <==

   -------------------------------------------------------
    Irrep   Nso     Nmo     Nalpha   Nbeta   Ndocc  Nsocc
   -------------------------------------------------------
     A1        30      30       0       0       0       0
     A2         4       4       0       0       0       0
     B1        13      13       0       0       0       0
     B2        13      13       0       0       0       0
   -------------------------------------------------------
    Total      60      60      11      10      10       1
   -------------------------------------------------------

  ==> Integral Setup <==

  ==> DiskDFJK: Density-Fitted J/K Matrices <==

    J tasked:                  Yes
    K tasked:                  Yes
    wK tasked:                  No
    OpenMP threads:              1
    Integrals threads:           1
    Memory (MB):               375
    Algorithm:                Core
    Integral Cache:           NONE
    Schwarz Cutoff:          1E-12
    Fitting Condition:       1E-12

   => Auxiliary Basis Set <=

  Basis Set: (DEF2-SVP AUX)
    Blend: DEF2-SVP-JKFIT
    Number of shells: 113
    Number of basis function: 357
    Number of Cartesian functions: 430
    Spherical Harmonics?: true
    Max angular momentum: 4

  Minimum eigenvalue in the overlap matrix is 3.6476207012E-03.
  Using Symmetric Orthogonalization.

  SCF Guess: Superposition of Atomic Densities via on-the-fly atomic UHF.

  ==> Iterations <==

                           Total Energy        Delta E     RMS |[F,P]|

   @DF-UKS iter   0:  -168.04145073098036   -1.68041e+02   6.84052e-02 
   @DF-UKS iter   1:  -167.82880013988074    2.12651e-01   9.43799e-03 
   @DF-UKS iter   2:  -167.75942188878415    6.93783e-02   1.51271e-02 DIIS
   @DF-UKS iter   3:  -167.87508938138376   -1.15667e-01   1.18358e-03 DIIS
   @DF-UKS iter   4:  -167.87581504222669   -7.25661e-04   6.65174e-04 DIIS
   @DF-UKS iter   5:  -167.87588736470030   -7.23225e-05   6.03900e-04 DIIS
   @DF-UKS iter   6:  -167.87610406323540   -2.16699e-04   5.25073e-05 DIIS
   @DF-UKS iter   7:  -167.87611030093848   -6.23770e-06   1.42232e-05 DIIS
   @DF-UKS iter   8:  -167.87611099743418   -6.96496e-07   4.53301e-06 DIIS
   @DF-UKS iter   9:  -167.87611107152671   -7.40925e-08   8.45791e-07 DIIS

  ==> Post-Iterations <==

   @Spin Contamination Metric:   1.237621891E-02
   @S^2 Expected:                7.500000000E-01
   @S^2 Observed:                7.623762189E-01
   @S   Expected:                5.000000000E-01
   @S   Observed:                5.000000000E-01

    Orbital Energies [Eh]
    ---------------------

    Alpha Occupied:                                                       

       1A1   -19.255008     2A1   -14.405604     3A1   -10.349296  
       4A1    -1.154056     5A1    -0.956415     6A1    -0.564608  
       1B1    -0.524082     1B2    -0.501637     7A1    -0.434947  
       2B1    -0.370722     2B2    -0.332917  

    Alpha Virtual:                                                        

       3B1     0.012145     3B2     0.033991     8A1     0.074002  
       9A1     0.221528    10A1     0.361300     4B1     0.423271  
       4B2     0.431341    11A1     0.442100    12A1     0.528831  
       5B2     0.570807     5B1     0.571313    13A1     0.634711  
       6B1     0.738732     6B2     0.764508    14A1     0.819079  
       7B1     0.990146     7B2     1.008010    15A1     1.008915  
      16A1     1.048045    17A1     1.416140     8B1     1.487860  
       8B2     1.508421     1A2     1.519738    18A1     1.519783  
      19A1     1.525330     2A2     2.137639    20A1     2.137661  
       3A2     2.409608    21A1     2.409609     9B2     2.412409  
       9B1     2.412828    22A1     2.416568    10B1     2.458420  
      10B2     2.487168    23A1     2.570645     4A2     2.571148  
      24A1     2.623074    11B1     2.953332    11B2     2.953533  
      25A1     2.976330    26A1     3.226834    12B1     3.307953  
      12B2     3.329816    27A1     3.732299    28A1     8.979207  
      13B2    28.649173    13B1    28.649381    29A1    28.682075  
      30A1   176.175383  

    Beta Occupied:                                                        

       1A1   -19.245396     2A1   -14.391458     3A1   -10.351057  
       4A1    -1.137171     5A1    -0.918958     6A1    -0.551959  
       1B2    -0.496772     1B1    -0.476688     7A1    -0.412632  
       2B2    -0.317490  

    Beta Virtual:                                                         

       2B1    -0.222048     3B2     0.039014     3B1     0.061892  
       8A1     0.079108     9A1     0.221932    10A1     0.367284  
       4B1     0.424533     4B2     0.429331    11A1     0.447404  
      12A1     0.530193     5B2     0.570518     5B1     0.572528  
      13A1     0.646299     6B2     0.774477     6B1     0.791842  
      14A1     0.827893     7B2     1.013458    15A1     1.017877  
       7B1     1.022715    16A1     1.060249    17A1     1.416319  
       8B2     1.510399     8B1     1.512857     1A2     1.521026  
      18A1     1.521452    19A1     1.536341     2A2     2.189559  
      20A1     2.194313     3A2     2.409589    21A1     2.409656  
       9B2     2.411764     9B1     2.412921    22A1     2.416001  
      10B2     2.494243    10B1     2.500293     4A2     2.599454  
      23A1     2.600382    24A1     2.638321    11B1     2.953045  
      11B2     2.953571    25A1     2.976331    26A1     3.240529  
      12B2     3.333465    12B1     3.334887    27A1     3.740824  
      28A1     8.975867    13B2    28.645980    13B1    28.646598  
      29A1    28.677268    30A1   176.177447  

    Final Occupation by Irrep:
             A1    A2    B1    B2 
    DOCC [     7,    0,    1,    2 ]
    SOCC [     0,    0,    1,    0 ]

  Energy converged.

  @DF-UKS Final Energy:  -167.87611107152671

   => Energetics <=

    Nuclear Repulsion Energy =             51.9586267144115723
    One-Electron Energy =                -330.4345589552972342
    Two-Electron Energy =                 127.4066905702496655
    DFT Exchange-Correlation Energy =     -16.8049311208907426
    Empirical Dispersion Energy =          -0.0019382800000000
    VV10 Nonlocal Energy =                  0.0000000000000000
    Total Energy =                       -167.8761110715266796


  UHF NO Occupations:
  HONO-2 :    2 B2 1.9994941
  HONO-1 :    1 B1 1.9948282
  HONO-0 :    2 B1 1.0000000
  LUNO+0 :    3 B1 0.0051718
  LUNO+1 :    3 B2 0.0005059
  LUNO+2 :    8 A1 0.0003841
  LUNO+3 :    9 A1 0.0000785


  //>>>>>>>>>>>>>>>>>>>>>>>>>>>>>>>>>>>//
  //             B3LYP-D3BJ            //
  //<<<<<<<<<<<<<<<<<<<<<<<<<<<<<<<<<<<//

   => Loading Basis Set <=

    Name: DEF2-TZVPD
    Role: ORBITAL
    Keyword: BASIS
    atoms 1 entry AR         line   641 file /home/yuant/psi4conda/share/psi4/basis/def2-tzvpd.gbs 
    atoms 2 entry C          line   134 file /home/yuant/psi4conda/share/psi4/basis/def2-tzvpd.gbs 
    atoms 3 entry N          line   171 file /home/yuant/psi4conda/share/psi4/basis/def2-tzvpd.gbs 
    atoms 4 entry O          line   208 file /home/yuant/psi4conda/share/psi4/basis/def2-tzvpd.gbs 


         ---------------------------------------------------------
                                   SCF
            by Justin Turney, Rob Parrish, Andy Simmonett
                             and Daniel Smith
                              UKS Reference
                        1 Threads,    500 MiB Core
         ---------------------------------------------------------

  ==> Geometry <==

    Molecular point group: c2v
    Full point group: C_inf_v

    Geometry (in Angstrom), charge = 0, multiplicity = 2:

       Center              X                  Y                   Z               Mass       
    ------------   -----------------  -----------------  -----------------  -----------------
      Gh(AR)          0.000000000000     0.000000000000    -4.036898000000    39.962383122510
         C            0.000000000000     0.000000000000     0.000000000000    12.000000000000
         N            0.000000000000     0.000000000000     1.231991000000    14.003074004780
         O            0.000000000000     0.000000000000    -1.175455000000    15.994914619560

  Running in c2v symmetry.

  Rotational constants: A = ************  B =      0.02427  C =      0.02427 [cm^-1]
  Rotational constants: A = ************  B =    727.57989  C =    727.57989 [MHz]
  Nuclear repulsion =   51.958626714411572

  Charge       = 0
  Multiplicity = 2
  Electrons    = 21
  Nalpha       = 11
  Nbeta        = 10

  ==> Algorithm <==

  SCF Algorithm Type is DF.
  DIIS enabled.
  MOM disabled.
  Fractional occupation disabled.
  Guess Type is READ.
  Energy threshold   = 1.00e-06
  Density threshold  = 1.00e-06
  Integral threshold = 0.00e+00

  ==> Primary Basis <==

  Basis Set: DEF2-TZVPD
    Blend: DEF2-TZVPD
    Number of shells: 56
    Number of basis function: 160
    Number of Cartesian functions: 184
    Spherical Harmonics?: true
    Max angular momentum: 3

  ==> DFT Potential <==

   => Composite Functional: B3LYP-D3BJ <= 

    B3LYP-d3bj Hyb-GGA Exchange-Correlation Functional

    P. J. Stephens, F. J. Devlin, C. F. Chabalowski, and M. J. Frisch, J. Phys. Chem. 98, 11623 (1994)

    Deriv               =              1
    GGA                 =           TRUE
    Meta                =          FALSE

    Exchange Hybrid     =           TRUE
    MP2 Hybrid          =          FALSE

   => Exchange Functionals <=

    0.0800   Slater exchange
    0.7200         Becke 88

   => Exact (HF) Exchange <=

    0.2000               HF 

   => Correlation Functionals <=

    0.1900   Vosko, Wilk & Nusair (VWN5_RPA)
    0.8100   Lee, Yang & Parr

   => Molecular Quadrature <=

    Radial Scheme       =       TREUTLER
    Pruning Scheme      =           FLAT
    Nuclear Scheme      =       TREUTLER

    BS radius alpha     =              1
    Pruning alpha       =              1
    Radial Points       =             75
    Spherical Points    =            302
    Total Points        =          90399
    Total Blocks        =            759
    Max Points          =            256
    Max Functions       =            148

   => -D3BJ: Empirical Dispersion <=

    Grimme's -D3 (BJ-damping) Dispersion Correction
    Grimme S.; Ehrlich S.; Goerigk L. (2011), J. Comput. Chem., 32: 1456

        S6 =   1.000000E+00
        S8 =   1.988900E+00
        A1 =   3.981000E-01
        A2 =   4.421100E+00

   => Loading Basis Set <=

    Name: (DEF2-TZVPD AUX)
    Role: JKFIT
    Keyword: DF_BASIS_SCF
    atoms 1 entry AR         line  1074 file /home/yuant/psi4conda/share/psi4/basis/def2-tzvp-jkfit.gbs 
    atoms 2 entry C          line   203 file /home/yuant/psi4conda/share/psi4/basis/def2-tzvp-jkfit.gbs 
    atoms 3 entry N          line   263 file /home/yuant/psi4conda/share/psi4/basis/def2-tzvp-jkfit.gbs 
    atoms 4 entry O          line   323 file /home/yuant/psi4conda/share/psi4/basis/def2-tzvp-jkfit.gbs 

  Unable to find file 180, defaulting to SAD guess.

  Computing basis projection from DEF2-SVP to DEF2-TZVPD

  ==> Pre-Iterations <==

   -------------------------------------------------------
    Irrep   Nso     Nmo     Nalpha   Nbeta   Ndocc  Nsocc
   -------------------------------------------------------
     A1        72      72       0       0       0       0
     A2        16      16       0       0       0       0
     B1        36      36       0       0       0       0
     B2        36      36       0       0       0       0
   -------------------------------------------------------
    Total     160     160      11      10      10       1
   -------------------------------------------------------

  ==> Integral Setup <==

  ==> MemDFJK: Density-Fitted J/K Matrices <==

    J tasked:                   Yes
    K tasked:                   Yes
    wK tasked:                   No
    OpenMP threads:               1
    Memory (MB):                375
    Algorithm:                 Core
    Schwarz Cutoff:           1E-12
    Mask sparsity (%):       8.8437
    Fitting Condition:        1E-12

   => Auxiliary Basis Set <=

  Basis Set: (DEF2-TZVPD AUX)
    Blend: DEF2-TZVP-JKFIT
    Number of shells: 113
    Number of basis function: 357
    Number of Cartesian functions: 430
    Spherical Harmonics?: true
    Max angular momentum: 4

  Minimum eigenvalue in the overlap matrix is 7.6327450214E-05.
  Using Symmetric Orthogonalization.

  SCF Guess: Orbitals guess was supplied from a previous computation.

  ==> Iterations <==

                           Total Energy        Delta E     RMS |[F,P]|

   @DF-UKS iter   0:  -167.98292794814753   -1.67983e+02   1.83125e-02 
   @DF-UKS iter   1:  -168.07681913655927   -9.38912e-02   2.83317e-04 
   @DF-UKS iter   2:  -168.07673487959750    8.42570e-05   3.17188e-04 DIIS
   @DF-UKS iter   3:  -168.07703030282346   -2.95423e-04   1.25206e-04 DIIS
   @DF-UKS iter   4:  -168.07707346876595   -4.31659e-05   6.30389e-05 DIIS
   @DF-UKS iter   5:  -168.07708507227156   -1.16035e-05   2.75030e-05 DIIS
   @DF-UKS iter   6:  -168.07708715910894   -2.08684e-06   3.03682e-06 DIIS
   @DF-UKS iter   7:  -168.07708727213071   -1.13022e-07   6.39225e-07 DIIS

  ==> Post-Iterations <==

   @Spin Contamination Metric:   1.223227404E-02
   @S^2 Expected:                7.500000000E-01
   @S^2 Observed:                7.622322740E-01
   @S   Expected:                5.000000000E-01
   @S   Observed:                5.000000000E-01

    Orbital Energies [Eh]
    ---------------------

    Alpha Occupied:                                                       

       1A1   -19.250200     2A1   -14.402756     3A1   -10.338636  
       4A1    -1.170569     5A1    -0.970600     6A1    -0.577442  
       1B1    -0.528614     1B2    -0.506669     7A1    -0.449122  
       2B1    -0.378191     2B2    -0.340535  

    Alpha Virtual:                                                        

       8A1    -0.015208     3B1     0.003954     3B2     0.024156  
       9A1     0.042406     4B1     0.054892     4B2     0.056920  
      10A1     0.087049     5B1     0.099336     5B2     0.099879  
      11A1     0.120703    12A1     0.122356     1A2     0.171050  
      13A1     0.171278     6B1     0.192353    14A1     0.192960  
       6B2     0.197190    15A1     0.255766    16A1     0.290250  
       7B1     0.318427     7B2     0.322572    17A1     0.327078  
       2A2     0.343866    18A1     0.344174     8B1     0.372242  
       8B2     0.375587     3A2     0.396856    19A1     0.396989  
       9B1     0.420841     9B2     0.424196    20A1     0.431881  
      10B1     0.461770    10B2     0.463681    21A1     0.475889  
      22A1     0.494116     4A2     0.509534    23A1     0.509740  
      24A1     0.583962    25A1     0.590529    11B1     0.636424  
      11B2     0.640696    12B1     0.672055    26A1     0.681064  
      12B2     0.688313    27A1     0.777495     5A2     0.802129  
      28A1     0.802352    13B1     0.859751    29A1     0.859811  
      13B2     0.869151    30A1     0.933594    31A1     1.007592  
      14B1     1.082340    14B2     1.100188    32A1     1.119969  
       6A2     1.289309    33A1     1.289511    15B1     1.505192  
      15B2     1.505755    34A1     1.586718    16B1     1.589416  
      16B2     1.608559     7A2     1.610771    35A1     1.610784  
      17B1     1.636158    36A1     1.636575    17B2     1.641046  
      18B1     1.656941    18B2     1.659191    37A1     1.708309  
       8A2     1.708762    38A1     1.712104    39A1     1.791118  
      40A1     1.899690    41A1     2.018712    19B1     2.134513  
      19B2     2.154813    42A1     2.235754    43A1     2.409036  
      20B1     2.464676    44A1     2.480951    20B2     2.491986  
      21B1     2.570155    21B2     2.570161     9A2     2.792338  
      45A1     2.792422    22B1     2.871217    22B2     2.887968  
      10A2     2.982512    46A1     2.982581    23B1     3.062949  
      23B2     3.083939    47A1     3.212788    48A1     3.381656  
      49A1     3.557015    24B1     3.594135    24B2     3.610831  
      25B1     3.865102    25B2     3.865197    11A2     3.977968  
      50A1     3.977973    26B1     3.978021    26B2     3.978021  
      27B2     4.003251    27B1     4.003350    51A1     4.078017  
      52A1     4.285512    12A2     4.286479    53A1     4.437939  
      28B2     4.521378    28B1     4.521450    54A1     4.607117  
      13A2     4.608144    55A1     4.662871    56A1     4.672090  
      29B1     4.929460    29B2     4.959947    30B1     5.050355  
      30B2     5.050371    31B1     5.303881    31B2     5.329678  
      57A1     5.504660    14A2     5.551368    58A1     5.552855  
      59A1     5.646433    60A1     6.341105    15A2     6.341147  
      16A2     6.536215    61A1     6.536218    32B1     6.548650  
      32B2     6.562551    33B1     6.575467    33B2     6.581261  
      62A1     6.665914    34B1     6.807260    34B2     6.827049  
      63A1     7.082136    64A1     7.326109    65A1     8.041170  
      35B1    13.291382    35B2    13.291392    66A1    13.406095  
      67A1    23.750525    68A1    32.170744    69A1    44.201078  
      36B1    57.631310    36B2    57.631347    70A1    57.775006  
      71A1    58.020034    72A1   177.210398  

    Beta Occupied:                                                        

       1A1   -19.240864     2A1   -14.388615     3A1   -10.340270  
       4A1    -1.153833     5A1    -0.932429     6A1    -0.565551  
       1B2    -0.501964     1B1    -0.481328     7A1    -0.427721  
       2B2    -0.325840  

    Beta Virtual:                                                         

       2B1    -0.229815     8A1    -0.013050     3B2     0.027763  
       9A1     0.042980     3B1     0.045149     4B2     0.057312  
       4B1     0.060466    10A1     0.088295     5B2     0.099559  
       5B1     0.101664    11A1     0.121291    12A1     0.124826  
       1A2     0.172008    13A1     0.172451    14A1     0.193372  
       6B2     0.198489     6B1     0.203074    15A1     0.259026  
      16A1     0.294086     7B1     0.319752     7B2     0.322206  
      17A1     0.327590     2A2     0.346943    18A1     0.347540  
       8B2     0.375583     8B1     0.377381     3A2     0.398583  
      19A1     0.399055     9B2     0.424102     9B1     0.424394  
      20A1     0.432413    10B1     0.462525    10B2     0.463243  
      21A1     0.478534    22A1     0.496405     4A2     0.512150  
      23A1     0.512482    24A1     0.584345    25A1     0.590975  
      11B1     0.640227    11B2     0.640349    26A1     0.687475  
      12B2     0.693519    12B1     0.701588    27A1     0.782788  
       5A2     0.803297    28A1     0.803757    29A1     0.863357  
      13B2     0.870775    13B1     0.871470    30A1     0.945743  
      31A1     1.008848    14B2     1.102419    14B1     1.103228  
      32A1     1.124069     6A2     1.319122    33A1     1.321590  
      15B1     1.505050    15B2     1.505153    34A1     1.594357  
       7A2     1.610745    35A1     1.610834    16B2     1.611203  
      16B1     1.612254    17B1     1.635673    36A1     1.636744  
      17B2     1.638872    18B2     1.658807    18B1     1.659304  
      37A1     1.712549     8A2     1.725397    38A1     1.726072  
      39A1     1.792152    40A1     1.904844    41A1     2.020213  
      19B2     2.159821    19B1     2.165613    42A1     2.242020  
      43A1     2.425400    44A1     2.491259    20B2     2.501247  
      20B1     2.512171    21B2     2.567736    21B1     2.567759  
       9A2     2.801994    45A1     2.802674    22B2     2.890493  
      22B1     2.893237    10A2     2.977001    46A1     2.977127  
      23B2     3.086983    23B1     3.089699    47A1     3.221790  
      48A1     3.388505    49A1     3.568645    24B1     3.610100  
      24B2     3.611814    25B2     3.911966    25B1     3.912999  
      26B1     3.977760    26B2     3.977760    11A2     3.977791  
      50A1     3.977812    27B2     4.002849    27B1     4.003198  
      51A1     4.078215    12A2     4.317332    52A1     4.319873  
      53A1     4.452272    28B2     4.520984    28B1     4.521189  
      13A2     4.663264    54A1     4.664705    55A1     4.670178  
      56A1     4.685375    29B2     4.966899    29B1     4.976977  
      30B2     5.074156    30B1     5.074241    31B2     5.333985  
      31B1     5.337776    57A1     5.520006    14A2     5.567381  
      58A1     5.568068    59A1     5.657822    15A2     6.373479  
      60A1     6.374978    16A2     6.535979    61A1     6.536002  
      32B2     6.563765    32B1     6.564244    33B2     6.582919  
      33B1     6.583912    62A1     6.665730    34B2     6.830581  
      34B1     6.833713    63A1     7.093689    64A1     7.333264  
      65A1     8.040755    35B2    13.291034    35B1    13.291096  
      66A1    13.405535    67A1    23.749632    68A1    32.186317  
      69A1    44.210493    36B1    57.630859    36B2    57.630871  
      70A1    57.774610    71A1    58.019148    72A1   177.203891  

    Final Occupation by Irrep:
             A1    A2    B1    B2 
    DOCC [     7,    0,    1,    2 ]
    SOCC [     0,    0,    1,    0 ]

  Energy converged.

  @DF-UKS Final Energy:  -168.07708727213071

   => Energetics <=

    Nuclear Repulsion Energy =             51.9586267144115723
    One-Electron Energy =                -330.6973197310547903
    Two-Electron Energy =                 127.4888572577360435
    DFT Exchange-Correlation Energy =     -16.8253132332235396
    Empirical Dispersion Energy =          -0.0019382800000000
    VV10 Nonlocal Energy =                  0.0000000000000000
    Total Energy =                       -168.0770872721306830


  UHF NO Occupations:
  HONO-2 :    7 A1 1.9994795
  HONO-1 :    1 B1 1.9950701
  HONO-0 :    2 B1 1.0000000
  LUNO+0 :    3 B1 0.0049299
  LUNO+1 :    8 A1 0.0005205
  LUNO+2 :    3 B2 0.0004711
  LUNO+3 :    9 A1 0.0000888



Properties will be evaluated at   0.000000,   0.000000,   0.000000 [a0]

Properties computed using the SCF density matrix

  Nuclear Dipole Moment: [e a0]
     X:     0.0000      Y:     0.0000      Z:    -1.4734

  Electronic Dipole Moment: [e a0]
     X:     0.0000      Y:     0.0000      Z:     1.1910

  Dipole Moment: [e a0]
     X:     0.0000      Y:     0.0000      Z:    -0.2824     Total:     0.2824

  Dipole Moment: [D]
     X:     0.0000      Y:     0.0000      Z:    -0.7178     Total:     0.7178


*** tstop() called on linux-en55 at Wed Jan  9 03:13:40 2019
Module time:
	user time   =       9.72 seconds =       0.16 minutes
	system time =       0.05 seconds =       0.00 minutes
	total time  =         10 seconds =       0.17 minutes
Total time:
	user time   =       9.72 seconds =       0.16 minutes
	system time =       0.05 seconds =       0.00 minutes
	total time  =         10 seconds =       0.17 minutes

       N-Body: Complex Energy (fragments = (2,), basis = (1, 2):  -168.07708727213071)

       N-Body: Computing complex (2/2) with fragments (1,) in the basis of fragments (1, 2).


*** tstart() called on linux-en55
*** at Wed Jan  9 03:13:40 2019


  //>>>>>>>>>>>>>>>>>>>>>>>>>>>>>>>>>>>//
  //     Guess SCF, DEF2-SVP Basis     //
  //<<<<<<<<<<<<<<<<<<<<<<<<<<<<<<<<<<<//

   => Loading Basis Set <=

    Name: DEF2-SVP
    Role: ORBITAL
    Keyword: BASIS
    atoms 1 entry AR         line   384 file /home/yuant/psi4conda/share/psi4/basis/def2-svp.gbs 
    atoms 2 entry C          line    90 file /home/yuant/psi4conda/share/psi4/basis/def2-svp.gbs 
    atoms 3 entry N          line   110 file /home/yuant/psi4conda/share/psi4/basis/def2-svp.gbs 
    atoms 4 entry O          line   130 file /home/yuant/psi4conda/share/psi4/basis/def2-svp.gbs 


         ---------------------------------------------------------
                           SCF Castup computation                  
         ---------------------------------------------------------
                                   SCF
            by Justin Turney, Rob Parrish, Andy Simmonett
                             and Daniel Smith
                              UKS Reference
                        1 Threads,    500 MiB Core
         ---------------------------------------------------------

  ==> Geometry <==

    Molecular point group: c2v
    Full point group: C_inf_v

    Geometry (in Angstrom), charge = 0, multiplicity = 1:

       Center              X                  Y                   Z               Mass       
    ------------   -----------------  -----------------  -----------------  -----------------
         AR           0.000000000000     0.000000000000    -4.036898000000    39.962383122510
      Gh(C)           0.000000000000     0.000000000000     0.000000000000    12.000000000000
      Gh(N)           0.000000000000     0.000000000000     1.231991000000    14.003074004780
      Gh(O)           0.000000000000     0.000000000000    -1.175455000000    15.994914619560

  Running in c2v symmetry.

  Rotational constants: A = ************  B =      0.02427  C =      0.02427 [cm^-1]
  Rotational constants: A = ************  B =    727.57989  C =    727.57989 [MHz]
  Nuclear repulsion =    0.000000000000000

  Charge       = 0
  Multiplicity = 1
  Electrons    = 18
  Nalpha       = 9
  Nbeta        = 9

  ==> Algorithm <==

  SCF Algorithm Type is DF.
  DIIS enabled.
  MOM disabled.
  Fractional occupation disabled.
  Guess Type is SAD.
  Energy threshold   = 1.00e-06
  Density threshold  = 1.00e-06
  Integral threshold = 0.00e+00

  ==> Primary Basis <==

  Basis Set: DEF2-SVP
    Blend: DEF2-SVP
    Number of shells: 26
    Number of basis function: 60
    Number of Cartesian functions: 64
    Spherical Harmonics?: true
    Max angular momentum: 2

  ==> DFT Potential <==

   => Composite Functional: B3LYP-D3BJ <= 

    B3LYP-d3bj Hyb-GGA Exchange-Correlation Functional

    P. J. Stephens, F. J. Devlin, C. F. Chabalowski, and M. J. Frisch, J. Phys. Chem. 98, 11623 (1994)

    Deriv               =              1
    GGA                 =           TRUE
    Meta                =          FALSE

    Exchange Hybrid     =           TRUE
    MP2 Hybrid          =          FALSE

   => Exchange Functionals <=

    0.0800   Slater exchange
    0.7200         Becke 88

   => Exact (HF) Exchange <=

    0.2000               HF 

   => Correlation Functionals <=

    0.1900   Vosko, Wilk & Nusair (VWN5_RPA)
    0.8100   Lee, Yang & Parr

   => Molecular Quadrature <=

    Radial Scheme       =       TREUTLER
    Pruning Scheme      =           FLAT
    Nuclear Scheme      =       TREUTLER

    BS radius alpha     =              1
    Pruning alpha       =              1
    Radial Points       =             75
    Spherical Points    =            302
    Total Points        =          86150
    Total Blocks        =            712
    Max Points          =            255
    Max Functions       =             58

   => -D3BJ: Empirical Dispersion <=

    Grimme's -D3 (BJ-damping) Dispersion Correction
    Grimme S.; Ehrlich S.; Goerigk L. (2011), J. Comput. Chem., 32: 1456

        S6 =   1.000000E+00
        S8 =   1.988900E+00
        A1 =   3.981000E-01
        A2 =   4.421100E+00

   => Loading Basis Set <=

    Name: (DEF2-SVP AUX)
    Role: JKFIT
    Keyword: DF_BASIS_SCF
    atoms 1 entry AR         line  1074 file /home/yuant/psi4conda/share/psi4/basis/def2-svp-jkfit.gbs 
    atoms 2 entry C          line   203 file /home/yuant/psi4conda/share/psi4/basis/def2-svp-jkfit.gbs 
    atoms 3 entry N          line   263 file /home/yuant/psi4conda/share/psi4/basis/def2-svp-jkfit.gbs 
    atoms 4 entry O          line   323 file /home/yuant/psi4conda/share/psi4/basis/def2-svp-jkfit.gbs 

  ==> Pre-Iterations <==

   -------------------------------------------------------
    Irrep   Nso     Nmo     Nalpha   Nbeta   Ndocc  Nsocc
   -------------------------------------------------------
     A1        30      30       0       0       0       0
     A2         4       4       0       0       0       0
     B1        13      13       0       0       0       0
     B2        13      13       0       0       0       0
   -------------------------------------------------------
    Total      60      60       9       9       9       0
   -------------------------------------------------------

  ==> Integral Setup <==

  ==> DiskDFJK: Density-Fitted J/K Matrices <==

    J tasked:                  Yes
    K tasked:                  Yes
    wK tasked:                  No
    OpenMP threads:              1
    Integrals threads:           1
    Memory (MB):               375
    Algorithm:                Core
    Integral Cache:           NONE
    Schwarz Cutoff:          1E-12
    Fitting Condition:       1E-12

   => Auxiliary Basis Set <=

  Basis Set: (DEF2-SVP AUX)
    Blend: DEF2-SVP-JKFIT
    Number of shells: 113
    Number of basis function: 357
    Number of Cartesian functions: 430
    Spherical Harmonics?: true
    Max angular momentum: 4

  Minimum eigenvalue in the overlap matrix is 3.6476207012E-03.
  Using Symmetric Orthogonalization.

  SCF Guess: Superposition of Atomic Densities via on-the-fly atomic UHF.

  ==> Iterations <==

                           Total Energy        Delta E     RMS |[F,P]|

   @DF-UKS iter   0:  -527.35550340866916   -5.27356e+02   6.09008e-03 
   @DF-UKS iter   1:  -527.36246862077610   -6.96521e-03   2.41877e-03 
   @DF-UKS iter   2:  -527.36410078967879   -1.63217e-03   1.49866e-03 DIIS
   @DF-UKS iter   3:  -527.36515281449874   -1.05202e-03   8.91422e-06 DIIS
   @DF-UKS iter   4:  -527.36515286644646   -5.19477e-08   2.27938e-06 DIIS
   @DF-UKS iter   5:  -527.36515286945769   -3.01122e-09   3.94530e-07 DIIS

  ==> Post-Iterations <==

   @Spin Contamination Metric:   1.953992523E-14
   @S^2 Expected:                0.000000000E+00
   @S^2 Observed:                1.953992523E-14
   @S   Expected:                0.000000000E+00
   @S   Observed:                0.000000000E+00

    Orbital Energies [Eh]
    ---------------------

    Alpha Occupied:                                                       

       1A1  -115.039698     2A1   -11.116839     3A1    -8.674425  
       1B1    -8.674256     1B2    -8.674256     4A1    -0.946387  
       5A1    -0.406915     2B1    -0.406500     2B2    -0.406500  

    Alpha Virtual:                                                        

       6A1     0.130595     7A1     0.240721     3B1     0.355362  
       3B2     0.355362     8A1     0.436837     9A1     0.567218  
       4B1     0.605307     4B2     0.605307    10A1     0.695761  
      11A1     0.733009     5B1     0.808087     5B2     0.808087  
       1A2     0.814283    12A1     0.814290    13A1     0.828559  
       6B2     0.850760     6B1     0.850760    14A1     0.892173  
       7B2     1.044900     7B1     1.044900    15A1     1.108905  
      16A1     1.403317    17A1     1.720357    18A1     2.436180  
       8B1     2.568632     8B2     2.568632     2A2     2.749423  
      19A1     2.749454     9B1     2.835113     9B2     2.835113  
      20A1     3.033766    21A1     3.194195    22A1     3.554707  
       3A2     3.555124    10B2     3.980123    10B1     3.980123  
      11B2     4.215777    11B1     4.215777    23A1     4.216595  
       4A2     4.216597    24A1     4.312677    12B2     4.994271  
      12B1     4.994271    25A1     5.008137    13B1     5.560062  
      13B2     5.560062    26A1     6.273282    27A1     7.244794  
      28A1    19.751844    29A1    26.370224    30A1    34.928519  

    Beta Occupied:                                                        

       1A1  -115.039698     2A1   -11.116839     3A1    -8.674425  
       1B1    -8.674256     1B2    -8.674256     4A1    -0.946387  
       5A1    -0.406915     2B1    -0.406500     2B2    -0.406500  

    Beta Virtual:                                                         

       6A1     0.130595     7A1     0.240721     3B1     0.355362  
       3B2     0.355362     8A1     0.436837     9A1     0.567218  
       4B1     0.605307     4B2     0.605307    10A1     0.695761  
      11A1     0.733009     5B1     0.808087     5B2     0.808087  
       1A2     0.814283    12A1     0.814290    13A1     0.828559  
       6B2     0.850760     6B1     0.850760    14A1     0.892173  
       7B2     1.044900     7B1     1.044900    15A1     1.108905  
      16A1     1.403317    17A1     1.720357    18A1     2.436180  
       8B1     2.568632     8B2     2.568632     2A2     2.749423  
      19A1     2.749454     9B1     2.835113     9B2     2.835113  
      20A1     3.033766    21A1     3.194195    22A1     3.554707  
       3A2     3.555124    10B2     3.980123    10B1     3.980123  
      11B2     4.215777    11B1     4.215777    23A1     4.216595  
       4A2     4.216597    24A1     4.312677    12B2     4.994271  
      12B1     4.994271    25A1     5.008137    13B1     5.560062  
      13B2     5.560062    26A1     6.273282    27A1     7.244794  
      28A1    19.751844    29A1    26.370224    30A1    34.928519  

    Final Occupation by Irrep:
             A1    A2    B1    B2 
    DOCC [     5,    0,    2,    2 ]
    SOCC [     0,    0,    0,    0 ]

  Energy converged.

  @DF-UKS Final Energy:  -527.36515286945769

   => Energetics <=

    Nuclear Repulsion Energy =              0.0000000000000000
    One-Electron Energy =                -728.3613718046647136
    Two-Electron Energy =                 225.8944433600448747
    DFT Exchange-Correlation Energy =     -24.8982244248378812
    Empirical Dispersion Energy =           0.0000000000000000
    VV10 Nonlocal Energy =                  0.0000000000000000
    Total Energy =                       -527.3651528694576882


  UHF NO Occupations:
  HONO-2 :    4 A1 2.0000000
  HONO-1 :    5 A1 2.0000000
  HONO-0 :    2 B2 2.0000000
  LUNO+0 :    6 A1 0.0000000
  LUNO+1 :    7 A1 0.0000000
  LUNO+2 :    3 B1 0.0000000
  LUNO+3 :    8 A1 0.0000000


  //>>>>>>>>>>>>>>>>>>>>>>>>>>>>>>>>>>>//
  //             B3LYP-D3BJ            //
  //<<<<<<<<<<<<<<<<<<<<<<<<<<<<<<<<<<<//

   => Loading Basis Set <=

    Name: DEF2-TZVPD
    Role: ORBITAL
    Keyword: BASIS
    atoms 1 entry AR         line   641 file /home/yuant/psi4conda/share/psi4/basis/def2-tzvpd.gbs 
    atoms 2 entry C          line   134 file /home/yuant/psi4conda/share/psi4/basis/def2-tzvpd.gbs 
    atoms 3 entry N          line   171 file /home/yuant/psi4conda/share/psi4/basis/def2-tzvpd.gbs 
    atoms 4 entry O          line   208 file /home/yuant/psi4conda/share/psi4/basis/def2-tzvpd.gbs 


         ---------------------------------------------------------
                                   SCF
            by Justin Turney, Rob Parrish, Andy Simmonett
                             and Daniel Smith
                              UKS Reference
                        1 Threads,    500 MiB Core
         ---------------------------------------------------------

  ==> Geometry <==

    Molecular point group: c2v
    Full point group: C_inf_v

    Geometry (in Angstrom), charge = 0, multiplicity = 1:

       Center              X                  Y                   Z               Mass       
    ------------   -----------------  -----------------  -----------------  -----------------
         AR           0.000000000000     0.000000000000    -4.036898000000    39.962383122510
      Gh(C)           0.000000000000     0.000000000000     0.000000000000    12.000000000000
      Gh(N)           0.000000000000     0.000000000000     1.231991000000    14.003074004780
      Gh(O)           0.000000000000     0.000000000000    -1.175455000000    15.994914619560

  Running in c2v symmetry.

  Rotational constants: A = ************  B =      0.02427  C =      0.02427 [cm^-1]
  Rotational constants: A = ************  B =    727.57989  C =    727.57989 [MHz]
  Nuclear repulsion =    0.000000000000000

  Charge       = 0
  Multiplicity = 1
  Electrons    = 18
  Nalpha       = 9
  Nbeta        = 9

  ==> Algorithm <==

  SCF Algorithm Type is DF.
  DIIS enabled.
  MOM disabled.
  Fractional occupation disabled.
  Guess Type is READ.
  Energy threshold   = 1.00e-06
  Density threshold  = 1.00e-06
  Integral threshold = 0.00e+00

  ==> Primary Basis <==

  Basis Set: DEF2-TZVPD
    Blend: DEF2-TZVPD
    Number of shells: 56
    Number of basis function: 160
    Number of Cartesian functions: 184
    Spherical Harmonics?: true
    Max angular momentum: 3

  ==> DFT Potential <==

   => Composite Functional: B3LYP-D3BJ <= 

    B3LYP-d3bj Hyb-GGA Exchange-Correlation Functional

    P. J. Stephens, F. J. Devlin, C. F. Chabalowski, and M. J. Frisch, J. Phys. Chem. 98, 11623 (1994)

    Deriv               =              1
    GGA                 =           TRUE
    Meta                =          FALSE

    Exchange Hybrid     =           TRUE
    MP2 Hybrid          =          FALSE

   => Exchange Functionals <=

    0.0800   Slater exchange
    0.7200         Becke 88

   => Exact (HF) Exchange <=

    0.2000               HF 

   => Correlation Functionals <=

    0.1900   Vosko, Wilk & Nusair (VWN5_RPA)
    0.8100   Lee, Yang & Parr

   => Molecular Quadrature <=

    Radial Scheme       =       TREUTLER
    Pruning Scheme      =           FLAT
    Nuclear Scheme      =       TREUTLER

    BS radius alpha     =              1
    Pruning alpha       =              1
    Radial Points       =             75
    Spherical Points    =            302
    Total Points        =          90399
    Total Blocks        =            759
    Max Points          =            256
    Max Functions       =            148

   => -D3BJ: Empirical Dispersion <=

    Grimme's -D3 (BJ-damping) Dispersion Correction
    Grimme S.; Ehrlich S.; Goerigk L. (2011), J. Comput. Chem., 32: 1456

        S6 =   1.000000E+00
        S8 =   1.988900E+00
        A1 =   3.981000E-01
        A2 =   4.421100E+00

   => Loading Basis Set <=

    Name: (DEF2-TZVPD AUX)
    Role: JKFIT
    Keyword: DF_BASIS_SCF
    atoms 1 entry AR         line  1074 file /home/yuant/psi4conda/share/psi4/basis/def2-tzvp-jkfit.gbs 
    atoms 2 entry C          line   203 file /home/yuant/psi4conda/share/psi4/basis/def2-tzvp-jkfit.gbs 
    atoms 3 entry N          line   263 file /home/yuant/psi4conda/share/psi4/basis/def2-tzvp-jkfit.gbs 
    atoms 4 entry O          line   323 file /home/yuant/psi4conda/share/psi4/basis/def2-tzvp-jkfit.gbs 

  Reading orbitals from file 180, no projection.


  Computing basis projection from DEF2-SVP to DEF2-TZVPD

  ==> Pre-Iterations <==

   -------------------------------------------------------
    Irrep   Nso     Nmo     Nalpha   Nbeta   Ndocc  Nsocc
   -------------------------------------------------------
     A1        72      72       0       0       0       0
     A2        16      16       0       0       0       0
     B1        36      36       0       0       0       0
     B2        36      36       0       0       0       0
   -------------------------------------------------------
    Total     160     160       9       9       9       0
   -------------------------------------------------------

  ==> Integral Setup <==

  ==> MemDFJK: Density-Fitted J/K Matrices <==

    J tasked:                   Yes
    K tasked:                   Yes
    wK tasked:                   No
    OpenMP threads:               1
    Memory (MB):                375
    Algorithm:                 Core
    Schwarz Cutoff:           1E-12
    Mask sparsity (%):       8.8437
    Fitting Condition:        1E-12

   => Auxiliary Basis Set <=

  Basis Set: (DEF2-TZVPD AUX)
    Blend: DEF2-TZVP-JKFIT
    Number of shells: 113
    Number of basis function: 357
    Number of Cartesian functions: 430
    Spherical Harmonics?: true
    Max angular momentum: 4

  Minimum eigenvalue in the overlap matrix is 7.6327450214E-05.
  Using Symmetric Orthogonalization.

  SCF Guess: Orbitals guess was supplied from a previous computation.

  ==> Iterations <==

                           Total Energy        Delta E     RMS |[F,P]|

   @DF-UKS iter   0:  -527.51242585936711   -5.27512e+02   1.62546e-02 
   @DF-UKS iter   1:  -527.55084646708724   -3.84206e-02   2.97676e-04 
   @DF-UKS iter   2:  -527.55098285611302   -1.36389e-04   1.78259e-04 DIIS
   @DF-UKS iter   3:  -527.55108007104491   -9.72149e-05   5.14700e-05 DIIS
   @DF-UKS iter   4:  -527.55108404321072   -3.97217e-06   1.48811e-06 DIIS
   @DF-UKS iter   5:  -527.55108405244948   -9.23876e-09   8.18912e-08 DIIS

  ==> Post-Iterations <==

   @Spin Contamination Metric:  -7.105427358E-15
   @S^2 Expected:                0.000000000E+00
   @S^2 Observed:               -7.105427358E-15
   @S   Expected:                0.000000000E+00
   @S   Observed:                0.000000000E+00

    Orbital Energies [Eh]
    ---------------------

    Alpha Occupied:                                                       

       1A1  -115.085001     2A1   -11.136481     1B2    -8.686114  
       1B1    -8.686114     3A1    -8.686107     4A1    -0.971005  
       5A1    -0.429117     2B1    -0.429088     2B2    -0.429088  

    Alpha Virtual:                                                        

       6A1     0.005244     7A1     0.039478     3B2     0.058448  
       3B1     0.058448     8A1     0.083175     4B2     0.097574  
       4B1     0.097574     9A1     0.129146    10A1     0.140763  
       5B1     0.193946     5B2     0.193946    11A1     0.200553  
       1A2     0.200554    12A1     0.218343    13A1     0.245240  
       6B2     0.272960     6B1     0.272960    14A1     0.287865  
       2A2     0.287941    15A1     0.306948     7B2     0.317185  
       7B1     0.317185    16A1     0.372285    17A1     0.376153  
      18A1     0.444767     8B1     0.470510     8B2     0.470510  
       3A2     0.498856    19A1     0.498871     9B2     0.524487  
       9B1     0.524487    20A1     0.558034    21A1     0.598356  
      10B1     0.617884    10B2     0.617884    22A1     0.626998  
       4A2     0.627041    23A1     0.673174     5A2     0.673191  
      11B1     0.675215    11B2     0.675215    24A1     0.676915  
      12B1     0.723235    12B2     0.723235    25A1     0.747588  
      13B1     0.799392    13B2     0.799392    26A1     0.815743  
      27A1     0.876576    28A1     0.955375    29A1     1.134670  
       6A2     1.262525    30A1     1.262533    31A1     1.265388  
      14B1     1.269196    14B2     1.269196    32A1     1.364653  
      33A1     1.522283    15B1     1.592811    15B2     1.592811  
      34A1     1.665460    16B1     1.772767    16B2     1.772767  
      35A1     1.818630     7A2     1.919469    36A1     1.919492  
      17B1     2.067212    17B2     2.067212    37A1     2.188533  
       8A2     2.188560    18B1     2.221600    18B2     2.221600  
      38A1     2.254118    19B1     2.297053    19B2     2.297053  
      39A1     2.328557    40A1     2.425304    41A1     2.488378  
       9A2     2.488378    20B2     2.551913    20B1     2.551913  
      42A1     2.556804    10A2     2.556809    21B2     2.578935  
      21B1     2.578935    43A1     2.654078    44A1     2.714550  
      22B1     2.715693    22B2     2.715693    45A1     2.925320  
      46A1     3.025925    23B2     3.128731    23B1     3.128731  
      47A1     3.131197    24B2     3.393767    24B1     3.393767  
      48A1     3.437515    49A1     3.747836    11A2     3.747841  
      50A1     4.254312    25B1     4.455817    25B2     4.455817  
      12A2     4.557665    51A1     4.557668    26B2     4.783061  
      26B1     4.783061    27B1     4.936275    27B2     4.936275  
      28B1     4.963570    28B2     4.963570    52A1     4.996292  
      53A1     5.294835    13A2     5.494044    54A1     5.494046  
      55A1     6.052687    29B2     6.414297    29B1     6.414297  
      30B1     6.494874    30B2     6.494874    56A1     6.784518  
      14A2     6.906533    57A1     6.906592    15A2     6.989793  
      58A1     6.989796    31B1     7.182227    31B2     7.182227  
      32B1     7.350384    32B2     7.350384    59A1     7.784064  
      33B1     8.268387    33B2     8.268387    60A1     8.413961  
      34B1     9.235286    34B2     9.235286    61A1     9.539120  
      16A2     9.539121    62A1     9.636439    63A1     9.942977  
      35B1     9.994459    35B2     9.994459    64A1    11.451032  
      36B2    12.760894    36B1    12.760894    65A1    12.855508  
      66A1    12.930972    67A1    14.599466    68A1    19.665041  
      69A1    33.137186    70A1    67.559131    71A1    93.916519  
      72A1   127.175626  

    Beta Occupied:                                                        

       1A1  -115.085001     2A1   -11.136481     1B2    -8.686114  
       1B1    -8.686114     3A1    -8.686107     4A1    -0.971005  
       5A1    -0.429117     2B1    -0.429088     2B2    -0.429088  

    Beta Virtual:                                                         

       6A1     0.005244     7A1     0.039478     3B2     0.058448  
       3B1     0.058448     8A1     0.083175     4B2     0.097574  
       4B1     0.097574     9A1     0.129146    10A1     0.140763  
       5B1     0.193946     5B2     0.193946    11A1     0.200553  
       1A2     0.200554    12A1     0.218343    13A1     0.245240  
       6B2     0.272960     6B1     0.272960    14A1     0.287865  
       2A2     0.287941    15A1     0.306948     7B2     0.317185  
       7B1     0.317185    16A1     0.372285    17A1     0.376153  
      18A1     0.444767     8B1     0.470510     8B2     0.470510  
       3A2     0.498856    19A1     0.498871     9B2     0.524487  
       9B1     0.524487    20A1     0.558034    21A1     0.598356  
      10B1     0.617884    10B2     0.617884    22A1     0.626998  
       4A2     0.627041    23A1     0.673174     5A2     0.673191  
      11B1     0.675215    11B2     0.675215    24A1     0.676915  
      12B1     0.723235    12B2     0.723235    25A1     0.747588  
      13B1     0.799392    13B2     0.799392    26A1     0.815743  
      27A1     0.876576    28A1     0.955375    29A1     1.134670  
       6A2     1.262525    30A1     1.262533    31A1     1.265388  
      14B1     1.269196    14B2     1.269196    32A1     1.364653  
      33A1     1.522283    15B1     1.592811    15B2     1.592811  
      34A1     1.665460    16B1     1.772767    16B2     1.772767  
      35A1     1.818630     7A2     1.919469    36A1     1.919492  
      17B1     2.067212    17B2     2.067212    37A1     2.188533  
       8A2     2.188560    18B1     2.221600    18B2     2.221600  
      38A1     2.254118    19B1     2.297053    19B2     2.297053  
      39A1     2.328557    40A1     2.425304    41A1     2.488378  
       9A2     2.488378    20B2     2.551913    20B1     2.551913  
      42A1     2.556804    10A2     2.556809    21B2     2.578935  
      21B1     2.578935    43A1     2.654078    44A1     2.714550  
      22B1     2.715693    22B2     2.715693    45A1     2.925320  
      46A1     3.025925    23B2     3.128731    23B1     3.128731  
      47A1     3.131197    24B2     3.393767    24B1     3.393767  
      48A1     3.437515    49A1     3.747836    11A2     3.747841  
      50A1     4.254312    25B1     4.455817    25B2     4.455817  
      12A2     4.557665    51A1     4.557668    26B2     4.783061  
      26B1     4.783061    27B1     4.936275    27B2     4.936275  
      28B1     4.963570    28B2     4.963570    52A1     4.996292  
      53A1     5.294835    13A2     5.494044    54A1     5.494046  
      55A1     6.052687    29B2     6.414297    29B1     6.414297  
      30B1     6.494874    30B2     6.494874    56A1     6.784518  
      14A2     6.906533    57A1     6.906592    15A2     6.989793  
      58A1     6.989796    31B1     7.182227    31B2     7.182227  
      32B1     7.350384    32B2     7.350384    59A1     7.784064  
      33B1     8.268387    33B2     8.268387    60A1     8.413961  
      34B1     9.235286    34B2     9.235286    61A1     9.539120  
      16A2     9.539121    62A1     9.636439    63A1     9.942977  
      35B1     9.994459    35B2     9.994459    64A1    11.451032  
      36B2    12.760894    36B1    12.760894    65A1    12.855508  
      66A1    12.930972    67A1    14.599466    68A1    19.665041  
      69A1    33.137186    70A1    67.559131    71A1    93.916519  
      72A1   127.175626  

    Final Occupation by Irrep:
             A1    A2    B1    B2 
    DOCC [     5,    0,    2,    2 ]
    SOCC [     0,    0,    0,    0 ]

  Energy converged.

  @DF-UKS Final Energy:  -527.55108405244948

   => Energetics <=

    Nuclear Repulsion Energy =              0.0000000000000000
    One-Electron Energy =                -728.3561933205810419
    Two-Electron Energy =                 225.6916287577310811
    DFT Exchange-Correlation Energy =     -24.8865194895995323
    Empirical Dispersion Energy =           0.0000000000000000
    VV10 Nonlocal Energy =                  0.0000000000000000
    Total Energy =                       -527.5510840524494824


  UHF NO Occupations:
  HONO-2 :    2 B2 2.0000000
  HONO-1 :    4 A1 2.0000000
  HONO-0 :    5 A1 2.0000000
  LUNO+0 :    6 A1 0.0000000
  LUNO+1 :    7 A1 0.0000000
  LUNO+2 :    3 B1 0.0000000
  LUNO+3 :    3 B2 0.0000000



Properties will be evaluated at   0.000000,   0.000000,   0.000000 [a0]

Properties computed using the SCF density matrix

  Nuclear Dipole Moment: [e a0]
     X:     0.0000      Y:     0.0000      Z:  -137.3154

  Electronic Dipole Moment: [e a0]
     X:     0.0000      Y:     0.0000      Z:   137.3153

  Dipole Moment: [e a0]
     X:     0.0000      Y:     0.0000      Z:    -0.0000     Total:     0.0000

  Dipole Moment: [D]
     X:     0.0000      Y:     0.0000      Z:    -0.0001     Total:     0.0001


*** tstop() called on linux-en55 at Wed Jan  9 03:13:47 2019
Module time:
	user time   =       7.07 seconds =       0.12 minutes
	system time =       0.04 seconds =       0.00 minutes
	total time  =          7 seconds =       0.12 minutes
Total time:
	user time   =      16.79 seconds =       0.28 minutes
	system time =       0.09 seconds =       0.00 minutes
	total time  =         17 seconds =       0.28 minutes

       N-Body: Complex Energy (fragments = (1,), basis = (1, 2):  -527.55108405244948)

   ==> N-Body: Now computing 2-body complexes <==


       N-Body: Computing complex (1/1) with fragments (1, 2) in the basis of fragments (1, 2).


*** tstart() called on linux-en55
*** at Wed Jan  9 03:13:47 2019


  //>>>>>>>>>>>>>>>>>>>>>>>>>>>>>>>>>>>//
  //     Guess SCF, DEF2-SVP Basis     //
  //<<<<<<<<<<<<<<<<<<<<<<<<<<<<<<<<<<<//

   => Loading Basis Set <=

    Name: DEF2-SVP
    Role: ORBITAL
    Keyword: BASIS
    atoms 1 entry AR         line   384 file /home/yuant/psi4conda/share/psi4/basis/def2-svp.gbs 
    atoms 2 entry C          line    90 file /home/yuant/psi4conda/share/psi4/basis/def2-svp.gbs 
    atoms 3 entry N          line   110 file /home/yuant/psi4conda/share/psi4/basis/def2-svp.gbs 
    atoms 4 entry O          line   130 file /home/yuant/psi4conda/share/psi4/basis/def2-svp.gbs 


         ---------------------------------------------------------
                           SCF Castup computation                  
         ---------------------------------------------------------
                                   SCF
            by Justin Turney, Rob Parrish, Andy Simmonett
                             and Daniel Smith
                              UKS Reference
                        1 Threads,    500 MiB Core
         ---------------------------------------------------------

  ==> Geometry <==

    Molecular point group: c2v
    Full point group: C_inf_v

    Geometry (in Angstrom), charge = 0, multiplicity = 2:

       Center              X                  Y                   Z               Mass       
    ------------   -----------------  -----------------  -----------------  -----------------
         AR           0.000000000000     0.000000000000    -4.036898000000    39.962383122510
         C            0.000000000000     0.000000000000     0.000000000000    12.000000000000
         N            0.000000000000     0.000000000000     1.231991000000    14.003074004780
         O            0.000000000000     0.000000000000    -1.175455000000    15.994914619560

  Running in c2v symmetry.

  Rotational constants: A = ************  B =      0.02427  C =      0.02427 [cm^-1]
  Rotational constants: A = ************  B =    727.57989  C =    727.57989 [MHz]
  Nuclear repulsion =  105.400992004437370

  Charge       = 0
  Multiplicity = 2
  Electrons    = 39
  Nalpha       = 20
  Nbeta        = 19

  ==> Algorithm <==

  SCF Algorithm Type is DF.
  DIIS enabled.
  MOM disabled.
  Fractional occupation disabled.
  Guess Type is SAD.
  Energy threshold   = 1.00e-06
  Density threshold  = 1.00e-06
  Integral threshold = 0.00e+00

  ==> Primary Basis <==

  Basis Set: DEF2-SVP
    Blend: DEF2-SVP
    Number of shells: 26
    Number of basis function: 60
    Number of Cartesian functions: 64
    Spherical Harmonics?: true
    Max angular momentum: 2

  ==> DFT Potential <==

   => Composite Functional: B3LYP-D3BJ <= 

    B3LYP-d3bj Hyb-GGA Exchange-Correlation Functional

    P. J. Stephens, F. J. Devlin, C. F. Chabalowski, and M. J. Frisch, J. Phys. Chem. 98, 11623 (1994)

    Deriv               =              1
    GGA                 =           TRUE
    Meta                =          FALSE

    Exchange Hybrid     =           TRUE
    MP2 Hybrid          =          FALSE

   => Exchange Functionals <=

    0.0800   Slater exchange
    0.7200         Becke 88

   => Exact (HF) Exchange <=

    0.2000               HF 

   => Correlation Functionals <=

    0.1900   Vosko, Wilk & Nusair (VWN5_RPA)
    0.8100   Lee, Yang & Parr

   => Molecular Quadrature <=

    Radial Scheme       =       TREUTLER
    Pruning Scheme      =           FLAT
    Nuclear Scheme      =       TREUTLER

    BS radius alpha     =              1
    Pruning alpha       =              1
    Radial Points       =             75
    Spherical Points    =            302
    Total Points        =          86150
    Total Blocks        =            712
    Max Points          =            255
    Max Functions       =             58

   => -D3BJ: Empirical Dispersion <=

    Grimme's -D3 (BJ-damping) Dispersion Correction
    Grimme S.; Ehrlich S.; Goerigk L. (2011), J. Comput. Chem., 32: 1456

        S6 =   1.000000E+00
        S8 =   1.988900E+00
        A1 =   3.981000E-01
        A2 =   4.421100E+00

   => Loading Basis Set <=

    Name: (DEF2-SVP AUX)
    Role: JKFIT
    Keyword: DF_BASIS_SCF
    atoms 1 entry AR         line  1074 file /home/yuant/psi4conda/share/psi4/basis/def2-svp-jkfit.gbs 
    atoms 2 entry C          line   203 file /home/yuant/psi4conda/share/psi4/basis/def2-svp-jkfit.gbs 
    atoms 3 entry N          line   263 file /home/yuant/psi4conda/share/psi4/basis/def2-svp-jkfit.gbs 
    atoms 4 entry O          line   323 file /home/yuant/psi4conda/share/psi4/basis/def2-svp-jkfit.gbs 

  ==> Pre-Iterations <==

   -------------------------------------------------------
    Irrep   Nso     Nmo     Nalpha   Nbeta   Ndocc  Nsocc
   -------------------------------------------------------
     A1        30      30       0       0       0       0
     A2         4       4       0       0       0       0
     B1        13      13       0       0       0       0
     B2        13      13       0       0       0       0
   -------------------------------------------------------
    Total      60      60      20      19      19       1
   -------------------------------------------------------

  ==> Integral Setup <==

  ==> DiskDFJK: Density-Fitted J/K Matrices <==

    J tasked:                  Yes
    K tasked:                  Yes
    wK tasked:                  No
    OpenMP threads:              1
    Integrals threads:           1
    Memory (MB):               375
    Algorithm:                Core
    Integral Cache:           NONE
    Schwarz Cutoff:          1E-12
    Fitting Condition:       1E-12

   => Auxiliary Basis Set <=

  Basis Set: (DEF2-SVP AUX)
    Blend: DEF2-SVP-JKFIT
    Number of shells: 113
    Number of basis function: 357
    Number of Cartesian functions: 430
    Spherical Harmonics?: true
    Max angular momentum: 4

  Minimum eigenvalue in the overlap matrix is 3.6476207012E-03.
  Using Symmetric Orthogonalization.

  SCF Guess: Superposition of Atomic Densities via on-the-fly atomic UHF.

  ==> Iterations <==

                           Total Energy        Delta E     RMS |[F,P]|

   @DF-UKS iter   0:  -695.39668374943403   -6.95397e+02   6.86779e-02 
   @DF-UKS iter   1:  -695.18887970190747    2.07804e-01   9.78757e-03 
   @DF-UKS iter   2:  -695.12144493764504    6.74348e-02   1.52547e-02 DIIS
   @DF-UKS iter   3:  -695.23800137000569   -1.16556e-01   1.41742e-03 DIIS
   @DF-UKS iter   4:  -695.23919635147797   -1.19498e-03   3.93959e-04 DIIS
   @DF-UKS iter   5:  -695.23915198873794    4.43627e-05   5.64170e-04 DIIS
   @DF-UKS iter   6:  -695.23933356022633   -1.81571e-04   5.94412e-05 DIIS
   @DF-UKS iter   7:  -695.23934040777965   -6.84755e-06   1.54758e-05 DIIS
   @DF-UKS iter   8:  -695.23934114031658   -7.32537e-07   5.42843e-06 DIIS
   @DF-UKS iter   9:  -695.23934121789773   -7.75811e-08   2.30835e-06 DIIS
   @DF-UKS iter  10:  -695.23934122749301   -9.59528e-09   3.53372e-07 DIIS

  ==> Post-Iterations <==

   @Spin Contamination Metric:   1.240292434E-02
   @S^2 Expected:                7.500000000E-01
   @S^2 Observed:                7.624029243E-01
   @S   Expected:                5.000000000E-01
   @S   Observed:                5.000000000E-01

    Orbital Energies [Eh]
    ---------------------

    Alpha Occupied:                                                       

       1A1  -115.033934     2A1   -19.252808     3A1   -14.404434  
       4A1   -11.111365     5A1   -10.347736     1B1    -8.668840  
       1B2    -8.668820     6A1    -8.668770     7A1    -1.152788  
       8A1    -0.955297     9A1    -0.942041    10A1    -0.565559  
       2B1    -0.522916     2B2    -0.500480    11A1    -0.434329  
       3B1    -0.402706     3B2    -0.402494    12A1    -0.398562  
       4B1    -0.369481     4B2    -0.331751  

    Alpha Virtual:                                                        

       5B1     0.013289     5B2     0.035118    13A1     0.075992  
      14A1     0.356314     6B1     0.424178     6B2     0.432234  
      15A1     0.443240    16A1     0.529775    17A1     0.634941  
      18A1     0.726955     7B1     0.738788     7B2     0.764415  
       8B1     0.817213     8B2     0.817639     1A2     0.818281  
      19A1     0.818288    20A1     0.842307    21A1     0.945927  
       9B1     0.974697     9B2     0.988481    22A1     1.033865  
      10B1     1.060514    10B2     1.064746    23A1     1.253636  
      11B1     1.489214    11B2     1.509752     2A2     1.520926  
      24A1     1.520969    25A1     1.526137     3A2     2.138694  
      26A1     2.138717    12B1     2.459378    12B2     2.488196  
      27A1     2.571911     4A2     2.572443    28A1     2.624270  
      29A1     3.223818    13B1     3.309071    13B2     3.330939  
      30A1     3.726942  

    Beta Occupied:                                                        

       1A1  -115.033933     2A1   -19.243200     3A1   -14.390294  
       4A1   -11.111364     5A1   -10.349506     1B1    -8.668831  
       1B2    -8.668820     6A1    -8.668774     7A1    -1.135883  
       8A1    -0.942079     9A1    -0.917828    10A1    -0.553238  
       2B2    -0.495623     2B1    -0.475561    11A1    -0.412493  
       3B1    -0.402532     3B2    -0.402482    12A1    -0.397763  
       4B2    -0.316337  

    Beta Virtual:                                                         

       4B1    -0.220953     5B2     0.040130     5B1     0.062978  
      13A1     0.081107    14A1     0.362577     6B1     0.425396  
       6B2     0.430214    15A1     0.448565    16A1     0.531179  
      17A1     0.646526    18A1     0.730434     7B2     0.774265  
       7B1     0.791247     8B2     0.817792     8B1     0.818159  
       1A2     0.818298    19A1     0.818305    20A1     0.846148  
      21A1     0.952104     9B2     0.992411     9B1     0.998784  
      22A1     1.048770    10B2     1.066268    10B1     1.069028  
      23A1     1.256198    11B2     1.511725    11B1     1.514172  
       2A2     1.522176    24A1     1.522598    25A1     1.537191  
       3A2     2.190595    26A1     2.195345    12B2     2.495277  
      12B1     2.501324     4A2     2.600764    27A1     2.601689  
      28A1     2.639808    29A1     3.237864    13B2     3.334581  
      13B1     3.335999    30A1     3.735535  

    Final Occupation by Irrep:
             A1    A2    B1    B2 
    DOCC [    12,    0,    3,    4 ]
    SOCC [     0,    0,    1,    0 ]

  Energy converged.

  @DF-UKS Final Energy:  -695.23934122749301

   => Energetics <=

    Nuclear Repulsion Energy =            105.4009920044373700
    One-Electron Energy =               -1165.7897658028186925
    Two-Electron Energy =                 406.8618833393119871
    DFT Exchange-Correlation Energy =     -41.7094416984237597
    Empirical Dispersion Energy =          -0.0030090700000000
    VV10 Nonlocal Energy =                  0.0000000000000000
    Total Energy =                       -695.2393412274931279


  UHF NO Occupations:
  HONO-2 :    4 B2 1.9994943
  HONO-1 :    3 B1 1.9948132
  HONO-0 :    4 B1 1.0000000
  LUNO+0 :    5 B1 0.0051868
  LUNO+1 :    5 B2 0.0005057
  LUNO+2 :   13 A1 0.0003838
  LUNO+3 :   14 A1 0.0000779


  //>>>>>>>>>>>>>>>>>>>>>>>>>>>>>>>>>>>//
  //             B3LYP-D3BJ            //
  //<<<<<<<<<<<<<<<<<<<<<<<<<<<<<<<<<<<//

   => Loading Basis Set <=

    Name: DEF2-TZVPD
    Role: ORBITAL
    Keyword: BASIS
    atoms 1 entry AR         line   641 file /home/yuant/psi4conda/share/psi4/basis/def2-tzvpd.gbs 
    atoms 2 entry C          line   134 file /home/yuant/psi4conda/share/psi4/basis/def2-tzvpd.gbs 
    atoms 3 entry N          line   171 file /home/yuant/psi4conda/share/psi4/basis/def2-tzvpd.gbs 
    atoms 4 entry O          line   208 file /home/yuant/psi4conda/share/psi4/basis/def2-tzvpd.gbs 


         ---------------------------------------------------------
                                   SCF
            by Justin Turney, Rob Parrish, Andy Simmonett
                             and Daniel Smith
                              UKS Reference
                        1 Threads,    500 MiB Core
         ---------------------------------------------------------

  ==> Geometry <==

    Molecular point group: c2v
    Full point group: C_inf_v

    Geometry (in Angstrom), charge = 0, multiplicity = 2:

       Center              X                  Y                   Z               Mass       
    ------------   -----------------  -----------------  -----------------  -----------------
         AR           0.000000000000     0.000000000000    -4.036898000000    39.962383122510
         C            0.000000000000     0.000000000000     0.000000000000    12.000000000000
         N            0.000000000000     0.000000000000     1.231991000000    14.003074004780
         O            0.000000000000     0.000000000000    -1.175455000000    15.994914619560

  Running in c2v symmetry.

  Rotational constants: A = ************  B =      0.02427  C =      0.02427 [cm^-1]
  Rotational constants: A = ************  B =    727.57989  C =    727.57989 [MHz]
  Nuclear repulsion =  105.400992004437370

  Charge       = 0
  Multiplicity = 2
  Electrons    = 39
  Nalpha       = 20
  Nbeta        = 19

  ==> Algorithm <==

  SCF Algorithm Type is DF.
  DIIS enabled.
  MOM disabled.
  Fractional occupation disabled.
  Guess Type is READ.
  Energy threshold   = 1.00e-06
  Density threshold  = 1.00e-06
  Integral threshold = 0.00e+00

  ==> Primary Basis <==

  Basis Set: DEF2-TZVPD
    Blend: DEF2-TZVPD
    Number of shells: 56
    Number of basis function: 160
    Number of Cartesian functions: 184
    Spherical Harmonics?: true
    Max angular momentum: 3

  ==> DFT Potential <==

   => Composite Functional: B3LYP-D3BJ <= 

    B3LYP-d3bj Hyb-GGA Exchange-Correlation Functional

    P. J. Stephens, F. J. Devlin, C. F. Chabalowski, and M. J. Frisch, J. Phys. Chem. 98, 11623 (1994)

    Deriv               =              1
    GGA                 =           TRUE
    Meta                =          FALSE

    Exchange Hybrid     =           TRUE
    MP2 Hybrid          =          FALSE

   => Exchange Functionals <=

    0.0800   Slater exchange
    0.7200         Becke 88

   => Exact (HF) Exchange <=

    0.2000               HF 

   => Correlation Functionals <=

    0.1900   Vosko, Wilk & Nusair (VWN5_RPA)
    0.8100   Lee, Yang & Parr

   => Molecular Quadrature <=

    Radial Scheme       =       TREUTLER
    Pruning Scheme      =           FLAT
    Nuclear Scheme      =       TREUTLER

    BS radius alpha     =              1
    Pruning alpha       =              1
    Radial Points       =             75
    Spherical Points    =            302
    Total Points        =          90399
    Total Blocks        =            759
    Max Points          =            256
    Max Functions       =            148

   => -D3BJ: Empirical Dispersion <=

    Grimme's -D3 (BJ-damping) Dispersion Correction
    Grimme S.; Ehrlich S.; Goerigk L. (2011), J. Comput. Chem., 32: 1456

        S6 =   1.000000E+00
        S8 =   1.988900E+00
        A1 =   3.981000E-01
        A2 =   4.421100E+00

   => Loading Basis Set <=

    Name: (DEF2-TZVPD AUX)
    Role: JKFIT
    Keyword: DF_BASIS_SCF
    atoms 1 entry AR         line  1074 file /home/yuant/psi4conda/share/psi4/basis/def2-tzvp-jkfit.gbs 
    atoms 2 entry C          line   203 file /home/yuant/psi4conda/share/psi4/basis/def2-tzvp-jkfit.gbs 
    atoms 3 entry N          line   263 file /home/yuant/psi4conda/share/psi4/basis/def2-tzvp-jkfit.gbs 
    atoms 4 entry O          line   323 file /home/yuant/psi4conda/share/psi4/basis/def2-tzvp-jkfit.gbs 

  Reading orbitals from file 180, no projection.


  Computing basis projection from DEF2-SVP to DEF2-TZVPD

  ==> Pre-Iterations <==

   -------------------------------------------------------
    Irrep   Nso     Nmo     Nalpha   Nbeta   Ndocc  Nsocc
   -------------------------------------------------------
     A1        72      72       0       0       0       0
     A2        16      16       0       0       0       0
     B1        36      36       0       0       0       0
     B2        36      36       0       0       0       0
   -------------------------------------------------------
    Total     160     160      20      19      19       1
   -------------------------------------------------------

  ==> Integral Setup <==

  ==> MemDFJK: Density-Fitted J/K Matrices <==

    J tasked:                   Yes
    K tasked:                   Yes
    wK tasked:                   No
    OpenMP threads:               1
    Memory (MB):                375
    Algorithm:                 Core
    Schwarz Cutoff:           1E-12
    Mask sparsity (%):       8.8437
    Fitting Condition:        1E-12

   => Auxiliary Basis Set <=

  Basis Set: (DEF2-TZVPD AUX)
    Blend: DEF2-TZVP-JKFIT
    Number of shells: 113
    Number of basis function: 357
    Number of Cartesian functions: 430
    Spherical Harmonics?: true
    Max angular momentum: 4

  Minimum eigenvalue in the overlap matrix is 7.6327450214E-05.
  Using Symmetric Orthogonalization.

  SCF Guess: Orbitals guess was supplied from a previous computation.

  ==> Iterations <==

                           Total Energy        Delta E     RMS |[F,P]|

   @DF-UKS iter   0:  -695.49358870918559   -6.95494e+02   2.44763e-02 
   @DF-UKS iter   1:  -695.62586945824228   -1.32281e-01   4.15510e-04 
   @DF-UKS iter   2:  -695.62591070557710   -4.12473e-05   3.73100e-04 DIIS
   @DF-UKS iter   3:  -695.62626677143885   -3.56066e-04   1.83652e-04 DIIS
   @DF-UKS iter   4:  -695.62635430031787   -8.75289e-05   9.82999e-05 DIIS
   @DF-UKS iter   5:  -695.62638291160783   -2.86113e-05   3.85723e-05 DIIS
   @DF-UKS iter   6:  -695.62638696233387   -4.05073e-06   3.00935e-06 DIIS
   @DF-UKS iter   7:  -695.62638709344571   -1.31112e-07   1.84273e-06 DIIS
   @DF-UKS iter   8:  -695.62638713622084   -4.27751e-08   6.17208e-07 DIIS

  ==> Post-Iterations <==

   @Spin Contamination Metric:   1.217588731E-02
   @S^2 Expected:                7.500000000E-01
   @S^2 Observed:                7.621758873E-01
   @S   Expected:                5.000000000E-01
   @S   Observed:                5.000000000E-01

    Orbital Energies [Eh]
    ---------------------

    Alpha Occupied:                                                       

       1A1  -115.080062     2A1   -19.249716     3A1   -14.403193  
       4A1   -11.131782     5A1   -10.338861     1B1    -8.681478  
       1B2    -8.681454     6A1    -8.681236     7A1    -1.171085  
       8A1    -0.971126     9A1    -0.967249    10A1    -0.580987  
       2B1    -0.529154     2B2    -0.507258    11A1    -0.450206  
       3B1    -0.425880     3B2    -0.425668    12A1    -0.421268  
       4B1    -0.378555     4B2    -0.340970  

    Alpha Virtual:                                                        

      13A1    -0.015746     5B1     0.003298     5B2     0.023437  
      14A1     0.023900     6B1     0.049855     6B2     0.051778  
      15A1     0.079890     7B1     0.081537     7B2     0.082956  
      16A1     0.111533    17A1     0.128911     1A2     0.168095  
      18A1     0.168281     8B1     0.172431     8B2     0.176339  
      19A1     0.205802     2A2     0.205836    20A1     0.208955  
      21A1     0.249696     9B1     0.259317     9B2     0.262203  
      22A1     0.271562    23A1     0.302792    10B1     0.315887  
      10B2     0.320163     3A2     0.362646    24A1     0.363025  
      25A1     0.378886    11B1     0.416756    11B2     0.422828  
      26A1     0.465114    27A1     0.490226    12B1     0.493157  
      12B2     0.495066     4A2     0.501974    28A1     0.502281  
      29A1     0.587244    13B1     0.626682    13B2     0.632017  
      30A1     0.654897    14B1     0.655234     5A2     0.659894  
      31A1     0.659920    14B2     0.665391    15B1     0.718729  
      32A1     0.720266    15B2     0.724432    33A1     0.796541  
       6A2     0.802744    34A1     0.803197    16B1     0.864471  
      16B2     0.873644    35A1     0.878666    36A1     0.935811  
      37A1     0.972420    17B1     1.081518    17B2     1.099475  
      38A1     1.120253    39A1     1.288816     7A2     1.289145  
      40A1     1.289629    41A1     1.587727    18B1     1.589656  
      18B2     1.608916    19B1     1.619050    19B2     1.626838  
      42A1     1.706092     8A2     1.706127    43A1     1.811377  
      44A1     1.966165    45A1     2.099531    20B1     2.128968  
      20B2     2.148873    46A1     2.191931     9A2     2.191958  
      21B1     2.227647    21B2     2.228731    47A1     2.353139  
      48A1     2.397152    49A1     2.458287    22B1     2.465129  
      22B2     2.491442    23B2     2.555267    23B1     2.555267  
      50A1     2.556828    10A2     2.556833    24B1     2.569693  
      24B2     2.569697    25B1     2.578736    25B2     2.579698  
      51A1     2.694991    26B1     2.715895    26B2     2.716611  
      11A2     2.791811    52A1     2.791896    27B1     2.881038  
      27B2     2.897295    53A1     2.927336    12A2     2.982261  
      54A1     2.982331    28B1     3.064181    28B2     3.085005  
      55A1     3.242715    56A1     3.381705    57A1     3.568579  
      29B1     3.594140    29B2     3.610814    30B1     3.864671  
      30B2     3.864766    58A1     4.284954    13A2     4.285979  
      59A1     4.436896    60A1     4.606639    14A2     4.607711  
      61A1     4.662697    31B1     4.928966    31B2     4.959448  
      32B1     5.049743    32B2     5.049758    33B1     5.303395  
      33B2     5.329200    62A1     5.506385    15A2     5.550591  
      63A1     5.552163    64A1     5.645910    65A1     6.341253  
      16A2     6.341293    34B1     6.551133    34B2     6.570757  
      35B1     6.806045    35B2     6.825834    66A1     7.079040  
      67A1     7.320454    36B1    12.764948    36B2    12.765005  
      68A1    12.910307    69A1    23.748521    70A1    32.170256  
      71A1    33.141942    72A1    44.202474  

    Beta Occupied:                                                        
[...]
      30A1     3.703072  

    Beta Occupied:                                                        

       1A1  -115.036332     2A1   -19.244522     3A1   -14.390903  
       4A1   -11.113783     5A1   -10.350412     1B1    -8.671239  
       1B2    -8.671239     6A1    -8.671236     7A1    -1.136495  
       8A1    -0.944175     9A1    -0.918422    10A1    -0.551177  
       2B2    -0.496160     2B1    -0.476071    11A1    -0.412143  
       3B1    -0.404490     3B2    -0.404486    12A1    -0.404448  
       4B2    -0.316931  

    Beta Virtual:                                                         

       4B1    -0.221491     5B2     0.039583     5B1     0.062455  
      13A1     0.080588    14A1     0.365496     6B1     0.424970  
       6B2     0.429782    15A1     0.449644    16A1     0.550731  
      17A1     0.645487    18A1     0.749161     7B2     0.774528  
       7B1     0.791898     1A2     0.816363    19A1     0.816372  
       8B1     0.816387     8B2     0.816389    20A1     0.816405  
      21A1     0.976006     9B2     1.011187     9B1     1.020519  
      10B1     1.041127    10B2     1.041133    22A1     1.041183  
      23A1     1.053551    11B2     1.510887    11B1     1.513342  
       2A2     1.521576    24A1     1.521987    25A1     1.534933  
       3A2     2.190071    26A1     2.194824    12B2     2.494695  
      12B1     2.500746     4A2     2.600165    27A1     2.601054  
      28A1     2.634624    29A1     3.231213    13B2     3.333946  
      13B1     3.335367    30A1     3.711657  

    Final Occupation by Irrep:
             A1    A2    B1    B2 
    DOCC [    12,    0,    3,    4 ]
    SOCC [     0,    0,    1,    0 ]

  Energy converged.

  @DF-UKS Final Energy:  -695.23949237601380

   => Energetics <=

    Nuclear Repulsion Energy =             81.1442526229910897
    One-Electron Energy =               -1117.2228136700869072
    Two-Electron Energy =                 382.5483897718463595
    DFT Exchange-Correlation Energy =     -41.7073476207643239
    Empirical Dispersion Energy =          -0.0019734800000000
    VV10 Nonlocal Energy =                  0.0000000000000000
    Total Energy =                       -695.2394923760135725


  UHF NO Occupations:
  HONO-2 :    4 B2 1.9994939
  HONO-1 :    3 B1 1.9948164
  HONO-0 :    4 B1 1.0000000
  LUNO+0 :    5 B1 0.0051836
  LUNO+1 :    5 B2 0.0005061
  LUNO+2 :   13 A1 0.0003840
  LUNO+3 :   14 A1 0.0000778


  //>>>>>>>>>>>>>>>>>>>>>>>>>>>>>>>>>>>//
  //             B3LYP-D3BJ            //
  //<<<<<<<<<<<<<<<<<<<<<<<<<<<<<<<<<<<//

   => Loading Basis Set <=

    Name: DEF2-TZVPD
    Role: ORBITAL
    Keyword: BASIS
    atoms 1 entry AR         line   641 file /home/yuant/psi4conda/share/psi4/basis/def2-tzvpd.gbs 
    atoms 2 entry C          line   134 file /home/yuant/psi4conda/share/psi4/basis/def2-tzvpd.gbs 
    atoms 3 entry N          line   171 file /home/yuant/psi4conda/share/psi4/basis/def2-tzvpd.gbs 
    atoms 4 entry O          line   208 file /home/yuant/psi4conda/share/psi4/basis/def2-tzvpd.gbs 


         ---------------------------------------------------------
                                   SCF
            by Justin Turney, Rob Parrish, Andy Simmonett
                             and Daniel Smith
                              UKS Reference
                        1 Threads,    500 MiB Core
         ---------------------------------------------------------

  ==> Geometry <==

    Molecular point group: c2v
    Full point group: C_inf_v

    Geometry (in Angstrom), charge = 0, multiplicity = 2:

       Center              X                  Y                   Z               Mass       
    ------------   -----------------  -----------------  -----------------  -----------------
         AR           0.000000000000     0.000000000000    -7.036898000000    39.962383122510
         C            0.000000000000     0.000000000000     0.000000000000    12.000000000000
         N            0.000000000000     0.000000000000     1.231991000000    14.003074004780
         O            0.000000000000     0.000000000000    -1.175455000000    15.994914619560

  Running in c2v symmetry.

  Rotational constants: A = ************  B =      0.00834  C =      0.00834 [cm^-1]
  Rotational constants: A = ************  B =    249.91438  C =    249.91438 [MHz]
  Nuclear repulsion =   81.144252622991090

  Charge       = 0
  Multiplicity = 2
  Electrons    = 39
  Nalpha       = 20
  Nbeta        = 19

  ==> Algorithm <==

  SCF Algorithm Type is DF.
  DIIS enabled.
  MOM disabled.
  Fractional occupation disabled.
  Guess Type is READ.
  Energy threshold   = 1.00e-06
  Density threshold  = 1.00e-06
  Integral threshold = 0.00e+00

  ==> Primary Basis <==

  Basis Set: DEF2-TZVPD
    Blend: DEF2-TZVPD
    Number of shells: 56
    Number of basis function: 160
    Number of Cartesian functions: 184
    Spherical Harmonics?: true
    Max angular momentum: 3

  ==> DFT Potential <==

   => Composite Functional: B3LYP-D3BJ <= 

    B3LYP-d3bj Hyb-GGA Exchange-Correlation Functional

    P. J. Stephens, F. J. Devlin, C. F. Chabalowski, and M. J. Frisch, J. Phys. Chem. 98, 11623 (1994)

    Deriv               =              1
    GGA                 =           TRUE
    Meta                =          FALSE

    Exchange Hybrid     =           TRUE
    MP2 Hybrid          =          FALSE

   => Exchange Functionals <=

    0.0800   Slater exchange
    0.7200         Becke 88

   => Exact (HF) Exchange <=

    0.2000               HF 

   => Correlation Functionals <=

    0.1900   Vosko, Wilk & Nusair (VWN5_RPA)
    0.8100   Lee, Yang & Parr

   => Molecular Quadrature <=

    Radial Scheme       =       TREUTLER
    Pruning Scheme      =           FLAT
    Nuclear Scheme      =       TREUTLER

    BS radius alpha     =              1
    Pruning alpha       =              1
    Radial Points       =             75
    Spherical Points    =            302
    Total Points        =          90399
    Total Blocks        =            816
    Max Points          =            256
    Max Functions       =            131

   => -D3BJ: Empirical Dispersion <=

    Grimme's -D3 (BJ-damping) Dispersion Correction
    Grimme S.; Ehrlich S.; Goerigk L. (2011), J. Comput. Chem., 32: 1456

        S6 =   1.000000E+00
        S8 =   1.988900E+00
        A1 =   3.981000E-01
        A2 =   4.421100E+00

   => Loading Basis Set <=

    Name: (DEF2-TZVPD AUX)
    Role: JKFIT
    Keyword: DF_BASIS_SCF
    atoms 1 entry AR         line  1074 file /home/yuant/psi4conda/share/psi4/basis/def2-tzvp-jkfit.gbs 
    atoms 2 entry C          line   203 file /home/yuant/psi4conda/share/psi4/basis/def2-tzvp-jkfit.gbs 
    atoms 3 entry N          line   263 file /home/yuant/psi4conda/share/psi4/basis/def2-tzvp-jkfit.gbs 
    atoms 4 entry O          line   323 file /home/yuant/psi4conda/share/psi4/basis/def2-tzvp-jkfit.gbs 

  Reading orbitals from file 180, no projection.


  Computing basis projection from DEF2-SVP to DEF2-TZVPD

  ==> Pre-Iterations <==

   -------------------------------------------------------
    Irrep   Nso     Nmo     Nalpha   Nbeta   Ndocc  Nsocc
   -------------------------------------------------------
     A1        72      72       0       0       0       0
     A2        16      16       0       0       0       0
     B1        36      36       0       0       0       0
     B2        36      36       0       0       0       0
   -------------------------------------------------------
    Total     160     160      20      19      19       1
   -------------------------------------------------------

  ==> Integral Setup <==

  ==> MemDFJK: Density-Fitted J/K Matrices <==

    J tasked:                   Yes
    K tasked:                   Yes
    wK tasked:                   No
    OpenMP threads:               1
    Memory (MB):                375
    Algorithm:                 Core
    Schwarz Cutoff:           1E-12
    Mask sparsity (%):      22.9609
    Fitting Condition:        1E-12

   => Auxiliary Basis Set <=

  Basis Set: (DEF2-TZVPD AUX)
    Blend: DEF2-TZVP-JKFIT
    Number of shells: 113
    Number of basis function: 357
    Number of Cartesian functions: 430
    Spherical Harmonics?: true
    Max angular momentum: 4

  Minimum eigenvalue in the overlap matrix is 8.5625750683E-05.
  Using Symmetric Orthogonalization.

  SCF Guess: Orbitals guess was supplied from a previous computation.

  ==> Iterations <==

                           Total Energy        Delta E     RMS |[F,P]|

   @DF-UKS iter   0:  -695.49776834439513   -6.95498e+02   2.43048e-02 
   @DF-UKS iter   1:  -695.62751183747059   -1.29743e-01   4.25765e-04 
   @DF-UKS iter   2:  -695.62760051944463   -8.86820e-05   3.83824e-04 DIIS
   @DF-UKS iter   3:  -695.62799444024768   -3.93921e-04   1.63854e-04 DIIS
   @DF-UKS iter   4:  -695.62805924397094   -6.48037e-05   9.33098e-05 DIIS
   @DF-UKS iter   5:  -695.62808425017420   -2.50062e-05   4.11438e-05 DIIS
   @DF-UKS iter   6:  -695.62808896882166   -4.71865e-06   2.75155e-06 DIIS
   @DF-UKS iter   7:  -695.62808908567763   -1.16856e-07   1.75185e-06 DIIS
   @DF-UKS iter   8:  -695.62808912421337   -3.85357e-08   5.80594e-07 DIIS

  ==> Post-Iterations <==

   @Spin Contamination Metric:   1.222861834E-02
   @S^2 Expected:                7.500000000E-01
   @S^2 Observed:                7.622286183E-01
   @S   Expected:                5.000000000E-01
   @S   Observed:                5.000000000E-01

    Orbital Energies [Eh]
    ---------------------

    Alpha Occupied:                                                       

       1A1  -115.084927     2A1   -19.250175     3A1   -14.402741  
       4A1   -11.136556     5A1   -10.338525     1B1    -8.686171  
       1B2    -8.686171     6A1    -8.686165     7A1    -1.170552  
       8A1    -0.971249     9A1    -0.970580    10A1    -0.577431  
       2B1    -0.528596     2B2    -0.506651    11A1    -0.449106  
       3B1    -0.429360     3B2    -0.429356    12A1    -0.429317  
       4B1    -0.378175     4B2    -0.340518  

    Alpha Virtual:                                                        

      13A1    -0.014901     5B1     0.004061     5B2     0.024307  
      14A1     0.038723     6B1     0.052167     6B2     0.053483  
      15A1     0.057925     7B1     0.067221     7B2     0.068455  
      16A1     0.093393    17A1     0.124632    18A1     0.127482  
       1A2     0.171616    19A1     0.171839     8B1     0.176561  
       8B2     0.181757     2A2     0.201777    20A1     0.201778  
       9B1     0.202189     9B2     0.202413    21A1     0.202629  
      22A1     0.260797    23A1     0.281827    10B1     0.304262  
      10B2     0.308384     3A2     0.359291    24A1     0.359344  
      25A1     0.360908    11B1     0.407375    11B2     0.413978  
      26A1     0.440084    27A1     0.482077    12B1     0.493484  
       4A2     0.498738    12B2     0.498759    28A1     0.498931  
      13B1     0.531686    13B2     0.531776    29A1     0.545271  
      30A1     0.629381    31A1     0.647498    14B1     0.653343  
       5A2     0.653674    32A1     0.653684    14B2     0.654284  
      15B1     0.661442    15B2     0.676509    33A1     0.684693  
      34A1     0.794117     6A2     0.796498    35A1     0.796517  
      36A1     0.815771    16B1     0.845907    16B2     0.855236  
      37A1     0.932642    38A1     1.024768    17B1     1.058252  
      17B2     1.076712    39A1     1.097364     7A2     1.288551  
      40A1     1.288747    18B1     1.548705    18B2     1.556162  
      41A1     1.578858    19B1     1.589703    19B2     1.609625  
      42A1     1.702923     8A2     1.702971    43A1     1.733689  
      44A1     1.843668    20B1     2.130893    45A1     2.142940  
      20B2     2.151401     9A2     2.185157    46A1     2.185160  
      21B1     2.185978    21B2     2.185994    47A1     2.205486  
      48A1     2.358506    49A1     2.448260    22B1     2.449895  
      22B2     2.477091    10A2     2.551613    23B1     2.551617  
      23B2     2.551617    50A1     2.551642    24B1     2.551646  
      24B2     2.551649    51A1     2.551911    25B1     2.570165  
      25B2     2.570170    26B1     2.693024    26B2     2.693049  
      52A1     2.706096    11A2     2.792286    53A1     2.792356  
      27B1     2.844561    27B2     2.861118    12A2     2.980724  
      54A1     2.980792    28B1     3.056532    28B2     3.077904  
      55A1     3.184681    56A1     3.371255    57A1     3.476187  
      29B1     3.586177    29B2     3.602766    30B1     3.865111  
      30B2     3.865206    58A1     4.284973    13A2     4.286342  
      59A1     4.405864    60A1     4.606087    14A2     4.608110  
      61A1     4.649904    31B1     4.928998    31B2     4.959458  
      32B1     5.050378    32B2     5.050394    33B1     5.293440  
      33B2     5.319383    62A1     5.489829    15A2     5.551143  
      63A1     5.552266    64A1     5.636091    65A1     6.338370  
      16A2     6.338442    34B1     6.515052    34B2     6.534517  
      35B1     6.801594    35B2     6.821584    66A1     7.031042  
      67A1     7.307140    36B1    12.746007    36B2    12.746008  
      68A1    12.755654    69A1    23.677923    70A1    32.156347  
      71A1    32.454521    72A1    44.126249  

    Beta Occupied:                                                        

       1A1  -115.084927     2A1   -19.240839     3A1   -14.388600  
       4A1   -11.136556     5A1   -10.340157     1B1    -8.686171  
       1B2    -8.686171     6A1    -8.686165     7A1    -1.153817  
       8A1    -0.971249     9A1    -0.932408    10A1    -0.565540  
       2B2    -0.501947     2B1    -0.481312     3B1    -0.429360  
       3B2    -0.429356    11A1    -0.429317    12A1    -0.427705  
       4B2    -0.325824  

    Beta Virtual:                                                         

       4B1    -0.229793    13A1    -0.012735     5B2     0.027911  
      14A1     0.039258     5B1     0.045063     6B2     0.053755  
       6B1     0.056144    15A1     0.058131     7B2     0.068600  
       7B1     0.069098    16A1     0.094777    17A1     0.126885  
      18A1     0.128375     1A2     0.172589    19A1     0.173043  
       8B2     0.183054     8B1     0.187250     2A2     0.201777  
      20A1     0.201778     9B2     0.202481     9B1     0.202715  
      21A1     0.203381    22A1     0.263075    23A1     0.286386  
      10B1     0.305255    10B2     0.307945    24A1     0.361099  
       3A2     0.364046    25A1     0.364902    11B2     0.414203  
      11B1     0.415444    26A1     0.441139    27A1     0.485983  
      12B1     0.498962    12B2     0.498971     4A2     0.501571  
      28A1     0.501873    13B1     0.531715    13B2     0.531768  
      29A1     0.545291    30A1     0.631930    31A1     0.651373  
       5A2     0.653674    32A1     0.653684    14B2     0.654358  
      14B1     0.654419    15B2     0.681360    33A1     0.686168  
      15B1     0.689151     6A2     0.797557    34A1     0.797637  
      35A1     0.800860    36A1     0.818694    16B2     0.856970  
      16B1     0.857863    37A1     0.944522    38A1     1.025513  
      17B2     1.079082    17B1     1.080177    39A1     1.102354  
       7A2     1.318424    40A1     1.320892    18B1     1.548561  
      18B2     1.553423    41A1     1.586554    19B2     1.612636  
      19B1     1.614560     8A2     1.719867    42A1     1.720476  
      43A1     1.734130    44A1     1.850007    45A1     2.148675  
      20B2     2.156504    20B1     2.162423     9A2     2.185157  
      46A1     2.185160    21B2     2.185999    21B1     2.186002  
      47A1     2.205788    48A1     2.371396    49A1     2.464454  
      22B2     2.486297    22B1     2.497192    10A2     2.551613  
      23B1     2.551617    23B2     2.551617    50A1     2.551642  
      24B1     2.551648    24B2     2.551649    51A1     2.551914  
      25B2     2.567751    25B1     2.567774    26B1     2.693053  
      26B2     2.693054    52A1     2.706097    11A2     2.801955  
      53A1     2.802633    27B2     2.863349    27B1     2.865944  
      12A2     2.975193    54A1     2.975319    28B2     3.081278  
      28B1     3.084324    55A1     3.194481    56A1     3.377897  
      57A1     3.487060    29B1     3.601860    29B2     3.603673  
      30B2     3.911978    30B1     3.913011    13A2     4.317190  
      58A1     4.319731    59A1     4.420282    60A1     4.659480  
      14A2     4.663237    61A1     4.675102    31B2     4.966390  
      31B1     4.976404    32B2     5.074175    32B1     5.074259  
      33B2     5.323737    33B1     5.327635    62A1     5.504899  
      15A2     5.567164    63A1     5.567851    64A1     5.647540  
      16A2     6.370874    65A1     6.372357    34B2     6.537697  
      34B1     6.538868    35B2     6.825242    35B1     6.828666  
      66A1     7.043194    67A1     7.314365    36B1    12.746007  
      36B2    12.746008    68A1    12.755654    69A1    23.677062  
      70A1    32.171777    71A1    32.454664    72A1    44.135666  

    Final Occupation by Irrep:
             A1    A2    B1    B2 
    DOCC [    12,    0,    3,    4 ]
    SOCC [     0,    0,    1,    0 ]

  Energy converged.

  @DF-UKS Final Energy:  -695.62808912421337

   => Energetics <=

    Nuclear Repulsion Energy =             81.1442526229910897
    One-Electron Energy =               -1117.4230046428465357
    Two-Electron Energy =                 382.3646986042062395
    DFT Exchange-Correlation Energy =     -41.7120622285640152
    Empirical Dispersion Energy =          -0.0019734800000000
    VV10 Nonlocal Energy =                  0.0000000000000000
    Total Energy =                       -695.6280891242130338


  UHF NO Occupations:
  HONO-2 :   12 A1 1.9994795
  HONO-1 :    3 B1 1.9950716
  HONO-0 :    4 B1 1.0000000
  LUNO+0 :    5 B1 0.0049284
  LUNO+1 :   13 A1 0.0005205
  LUNO+2 :    5 B2 0.0004709
  LUNO+3 :   14 A1 0.0000887



Properties will be evaluated at   0.000000,   0.000000,   0.000000 [a0]

Properties computed using the SCF density matrix

  Nuclear Dipole Moment: [e a0]
     X:     0.0000      Y:     0.0000      Z:  -240.8340

  Electronic Dipole Moment: [e a0]
     X:     0.0000      Y:     0.0000      Z:   240.5526

  Dipole Moment: [e a0]
     X:     0.0000      Y:     0.0000      Z:    -0.2814     Total:     0.2814

  Dipole Moment: [D]
     X:     0.0000      Y:     0.0000      Z:    -0.7153     Total:     0.7153


*** tstop() called on linux-en55 at Wed Jan  9 03:20:26 2019
Module time:
	user time   =       9.48 seconds =       0.16 minutes
	system time =       0.06 seconds =       0.00 minutes
	total time  =         10 seconds =       0.17 minutes
Total time:
	user time   =     407.48 seconds =       6.79 minutes
	system time =       2.10 seconds =       0.04 minutes
	total time  =        416 seconds =       6.93 minutes

       N-Body: Complex Energy (fragments = (1, 2), basis = (1, 2):  -695.62808912421337)

   ==> N-Body: Counterpoise Corrected (CP)  energies <==

   n-Body     Total Energy [Eh]       I.E. [kcal/mol]      Delta [kcal/mol]
        1     -695.628059888556        0.000000000000        0.000000000000
        2     -695.628089124213       -0.018345653039       -0.018345653039

   => Loading Basis Set <=

    Name: DEF2-SVP
    Role: ORBITAL
    Keyword: BASIS
    atoms 1 entry AR         line   384 file /home/yuant/psi4conda/share/psi4/basis/def2-svp.gbs 
    atoms 2 entry C          line    90 file /home/yuant/psi4conda/share/psi4/basis/def2-svp.gbs 
    atoms 3 entry N          line   110 file /home/yuant/psi4conda/share/psi4/basis/def2-svp.gbs 
    atoms 4 entry O          line   130 file /home/yuant/psi4conda/share/psi4/basis/def2-svp.gbs 


    Psi4 stopped on: Wednesday, 09 January 2019 03:20AM
    Psi4 wall time for execution: 0:06:55.51

*** Psi4 exiting successfully. Buy a developer a beer!
