
    -----------------------------------------------------------------------
          Psi4: An Open-Source Ab Initio Electronic Structure Package
                               Psi4 1.2 release

                         Git: Rev {HEAD} 9d4a61c 


    R. M. Parrish, L. A. Burns, D. G. A. Smith, A. C. Simmonett,
    A. E. DePrince III, E. G. Hohenstein, U. Bozkaya, A. Yu. Sokolov,
    R. Di Remigio, R. M. Richard, J. F. Gonthier, A. M. James,
    H. R. McAlexander, A. Kumar, M. Saitow, X. Wang, B. P. Pritchard,
    P. Verma, H. F. Schaefer III, K. Patkowski, R. A. King, E. F. Valeev,
    F. A. Evangelista, J. M. Turney, T. D. Crawford, and C. D. Sherrill,
    J. Chem. Theory Comput. 13(7) pp 3185--3197 (2017).
    (doi: 10.1021/acs.jctc.7b00174)


                         Additional Contributions by
    P. Kraus, H. Kruse, M. H. Lechner, M. C. Schieber, and R. A. Shaw

    -----------------------------------------------------------------------


    Psi4 started on: Wednesday, 09 January 2019 03:37AM

    Process ID: 5695
    Host:       linux-en55
    PSIDATADIR: /home/yuant/psi4conda/share/psi4
    Memory:     500.0 MiB
    Threads:    1
    
  ==> Input File <==

--------------------------------------------------------------------------
molecule NCOAr{
  0 1
  Ar 0.0 0.0 R
  --
  0 2
  C 0.0 0.0 0.0
  N 0.0 0.0 1.231991
  O 0.0 0.0 -1.175455
}

autocm = 219474.63067

table=Table(rows=["R"], cols=["Interaction Energy"])

set {
  basis = def2-TZVPD
  reference = UKS
  basis_guess def2-SVP
  guess sad
}
R = 4.0
for i in range(16):
  NCOAr.R = -R - 0.036898
  energy('DSD-PBEP86-D3BJ', bsse_type='cp')
  eint = get_variable('CP-CORRECTED 2-BODY INTERACTION ENERGY') * autocm
  table[R] = [eint]
  R += 0.2

print(table)--------------------------------------------------------------------------
Molecule: geometry: Molecule is not complete, please use 'update_geometry'
                    once all variables are set.

Molecule: Setting a variable updates the molecular geometry, for
          cartesian molecules this can lead to surprising behaviour.
          Freezing COM and orientation to prevent this.

Molecule: Setting geometry variable R to -4.036898


   ===> N-Body Interaction Abacus <===
        BSSE Treatment:                     cp
        Number of 1-body computations:     2
        Number of 2-body computations:     1

   ==> N-Body: Now computing 1-body complexes <==


       N-Body: Computing complex (1/2) with fragments (2,) in the basis of fragments (1, 2).


*** tstart() called on linux-en55
*** at Wed Jan  9 03:37:29 2019


  //>>>>>>>>>>>>>>>>>>>>>>>>>>>>>>>>>>>//
  //     Guess SCF, DEF2-SVP Basis     //
  //<<<<<<<<<<<<<<<<<<<<<<<<<<<<<<<<<<<//

   => Loading Basis Set <=

    Name: DEF2-SVP
    Role: ORBITAL
    Keyword: BASIS
    atoms 1 entry AR         line   384 file /home/yuant/psi4conda/share/psi4/basis/def2-svp.gbs 
    atoms 2 entry C          line    90 file /home/yuant/psi4conda/share/psi4/basis/def2-svp.gbs 
    atoms 3 entry N          line   110 file /home/yuant/psi4conda/share/psi4/basis/def2-svp.gbs 
    atoms 4 entry O          line   130 file /home/yuant/psi4conda/share/psi4/basis/def2-svp.gbs 


         ---------------------------------------------------------
                           SCF Castup computation                  
         ---------------------------------------------------------
                                   SCF
            by Justin Turney, Rob Parrish, Andy Simmonett
                             and Daniel Smith
                              UKS Reference
                        1 Threads,    500 MiB Core
         ---------------------------------------------------------

  ==> Geometry <==

    Molecular point group: c2v
    Full point group: C_inf_v

    Geometry (in Angstrom), charge = 0, multiplicity = 2:

       Center              X                  Y                   Z               Mass       
    ------------   -----------------  -----------------  -----------------  -----------------
      Gh(AR)          0.000000000000     0.000000000000    -4.036898000000    39.962383122510
         C            0.000000000000     0.000000000000     0.000000000000    12.000000000000
         N            0.000000000000     0.000000000000     1.231991000000    14.003074004780
         O            0.000000000000     0.000000000000    -1.175455000000    15.994914619560

  Running in c2v symmetry.

  Rotational constants: A = ************  B =      0.02427  C =      0.02427 [cm^-1]
  Rotational constants: A = ************  B =    727.57989  C =    727.57989 [MHz]
  Nuclear repulsion =   51.958626714411572

  Charge       = 0
  Multiplicity = 2
  Electrons    = 21
  Nalpha       = 11
  Nbeta        = 10

  ==> Algorithm <==

  SCF Algorithm Type is DF.
  DIIS enabled.
  MOM disabled.
  Fractional occupation disabled.
  Guess Type is SAD.
  Energy threshold   = 1.00e-06
  Density threshold  = 1.00e-06
  Integral threshold = 0.00e+00

  ==> Primary Basis <==

  Basis Set: DEF2-SVP
    Blend: DEF2-SVP
    Number of shells: 26
    Number of basis function: 60
    Number of Cartesian functions: 64
    Spherical Harmonics?: true
    Max angular momentum: 2

  ==> DFT Potential <==

   => Composite Functional: DSD-PBEP86-D3BJ <= 

    DSD-PBEP86-D3BJ Dispersion-corrected SCS Double Hybrid XC Functional

    S. Kozuch, J.M.L. Martin, J. Comp. Chem., 34, 2327-2344, 2013


    Deriv               =              1
    GGA                 =           TRUE
    Meta                =          FALSE

    Exchange Hybrid     =           TRUE
    MP2 Hybrid          =           TRUE

   => Exchange Functionals <=

    0.3100     XC_GGA_X_PBE

   => Exact (HF) Exchange <=

    0.6900               HF 

   => Correlation Functionals <=

    0.4400     XC_GGA_C_P86

   => MP2 Correlation <=

    MP2 SCS Hybrid      =           TRUE
    MP2 OS Alpha        =       0.520000
    MP2 SS Alpha        =       0.220000

   => Molecular Quadrature <=

    Radial Scheme       =       TREUTLER
    Pruning Scheme      =           FLAT
    Nuclear Scheme      =       TREUTLER

    BS radius alpha     =              1
    Pruning alpha       =              1
    Radial Points       =             75
    Spherical Points    =            302
    Total Points        =          86150
    Total Blocks        =            712
    Max Points          =            255
    Max Functions       =             58

   => -D3BJ: Empirical Dispersion <=

    Grimme's -D3 (BJ-damping) Dispersion Correction
    Grimme S.; Ehrlich S.; Goerigk L. (2011), J. Comput. Chem., 32: 1456
    Parametrisation from: 
    S. Kozuch, J.M.L. Martin, J. Comp. Chem., 34, 2327-2344, 2013


        S6 =   4.800000E-01
        S8 =   0.000000E+00
        A1 =   0.000000E+00
        A2 =   5.600000E+00

   => Loading Basis Set <=

    Name: (DEF2-SVP AUX)
    Role: JKFIT
    Keyword: DF_BASIS_SCF
    atoms 1 entry AR         line  1074 file /home/yuant/psi4conda/share/psi4/basis/def2-svp-jkfit.gbs 
    atoms 2 entry C          line   203 file /home/yuant/psi4conda/share/psi4/basis/def2-svp-jkfit.gbs 
    atoms 3 entry N          line   263 file /home/yuant/psi4conda/share/psi4/basis/def2-svp-jkfit.gbs 
    atoms 4 entry O          line   323 file /home/yuant/psi4conda/share/psi4/basis/def2-svp-jkfit.gbs 

  ==> Pre-Iterations <==

   -------------------------------------------------------
    Irrep   Nso     Nmo     Nalpha   Nbeta   Ndocc  Nsocc
   -------------------------------------------------------
     A1        30      30       0       0       0       0
     A2         4       4       0       0       0       0
     B1        13      13       0       0       0       0
     B2        13      13       0       0       0       0
   -------------------------------------------------------
    Total      60      60      11      10      10       1
   -------------------------------------------------------

  ==> Integral Setup <==

  ==> DiskDFJK: Density-Fitted J/K Matrices <==

    J tasked:                  Yes
    K tasked:                  Yes
    wK tasked:                  No
    OpenMP threads:              1
    Integrals threads:           1
    Memory (MB):               375
    Algorithm:                Core
    Integral Cache:           NONE
    Schwarz Cutoff:          1E-12
    Fitting Condition:       1E-12

   => Auxiliary Basis Set <=

  Basis Set: (DEF2-SVP AUX)
    Blend: DEF2-SVP-JKFIT
    Number of shells: 113
    Number of basis function: 357
    Number of Cartesian functions: 430
    Spherical Harmonics?: true
    Max angular momentum: 4

  Minimum eigenvalue in the overlap matrix is 3.6476207012E-03.
  Using Symmetric Orthogonalization.

  SCF Guess: Superposition of Atomic Densities via on-the-fly atomic UHF.

  ==> Iterations <==

                           Total Energy        Delta E     RMS |[F,P]|

   @DF-UKS iter   0:  -167.49274086633636   -1.67493e+02   7.05962e-02 
   @DF-UKS iter   1:  -167.27156817670453    2.21173e-01   8.39580e-03 
   @DF-UKS iter   2:  -167.29536190934527   -2.37937e-02   6.76073e-03 DIIS
   @DF-UKS iter   3:  -167.32093477819149   -2.55729e-02   1.28604e-03 DIIS
   @DF-UKS iter   4:  -167.32321662945063   -2.28185e-03   5.71164e-04 DIIS
   @DF-UKS iter   5:  -167.32357429782036   -3.57668e-04   3.66981e-04 DIIS
   @DF-UKS iter   6:  -167.32374148371889   -1.67186e-04   1.17340e-04 DIIS
   @DF-UKS iter   7:  -167.32378009140768   -3.86077e-05   6.35636e-05 DIIS
   @DF-UKS iter   8:  -167.32379819064090   -1.80992e-05   3.17100e-05 DIIS
   @DF-UKS iter   9:  -167.32380432345818   -6.13282e-06   1.31824e-05 DIIS
   @DF-UKS iter  10:  -167.32380535170171   -1.02824e-06   3.73517e-06 DIIS
   @DF-UKS iter  11:  -167.32380542263715   -7.09354e-08   1.09171e-06 DIIS
   @DF-UKS iter  12:  -167.32380542544320   -2.80605e-09   3.16267e-07 DIIS

  ==> Post-Iterations <==

   @Spin Contamination Metric:   4.952255562E-02
   @S^2 Expected:                7.500000000E-01
   @S^2 Observed:                7.995225556E-01
   @S   Expected:                5.000000000E-01
   @S   Observed:                5.000000000E-01

    Orbital Energies [Eh]
    ---------------------

    Alpha Occupied:                                                       

       1A1   -20.135827     2A1   -15.169403     3A1   -11.002547  
       4A1    -1.382836     5A1    -1.160499     6A1    -0.712236  
       1B1    -0.652590     1B2    -0.625734     7A1    -0.564516  
       2B1    -0.483828     2B2    -0.433514  

    Alpha Virtual:                                                        

       3B1     0.117059     3B2     0.138168     8A1     0.164893  
       9A1     0.254263    10A1     0.440550     4B1     0.544238  
       4B2     0.550180    11A1     0.561391    12A1     0.595727  
       5B1     0.599847     5B2     0.600039    13A1     0.767559  
       6B1     0.882116     6B2     0.914895    14A1     0.959590  
      15A1     1.126688     7B1     1.151706     7B2     1.174405  
      16A1     1.238240    17A1     1.446314     8B1     1.651187  
       8B2     1.672851    18A1     1.676680     1A2     1.676694  
      19A1     1.687044     2A2     2.322885    20A1     2.323030  
       3A2     2.429885    21A1     2.429886     9B1     2.430339  
       9B2     2.430364    22A1     2.443050    10B1     2.663927  
      10B2     2.696535    23A1     2.777409     4A2     2.778168  
      24A1     2.840043    11B1     2.959776    11B2     2.959834  
      25A1     3.008326    26A1     3.468903    12B1     3.535690  
      12B2     3.560010    27A1     3.987176    28A1     9.040557  
      13B1    28.713724    13B2    28.713734    29A1    28.750083  
      30A1   176.174875  

    Beta Occupied:                                                        

       1A1   -20.120185     2A1   -15.148060     3A1   -11.008663  
       4A1    -1.352034     5A1    -1.091735     6A1    -0.692562  
       1B2    -0.620697     1B1    -0.555972     7A1    -0.529382  
       2B2    -0.404559  

    Beta Virtual:                                                         

       2B1    -0.099540     3B2     0.141523     8A1     0.167720  
       3B1     0.206642     9A1     0.254494    10A1     0.448013  
       4B1     0.535795     4B2     0.542938    11A1     0.562303  
       5B2     0.599895     5B1     0.600033    12A1     0.600316  
      13A1     0.782666     6B2     0.931919     6B1     0.970077  
      14A1     0.971170    15A1     1.138933     7B2     1.182084  
       7B1     1.209170    16A1     1.252876    17A1     1.447353  
       1A2     1.670038    18A1     1.670239     8B2     1.673822  
       8B1     1.686090    19A1     1.700931     2A2     2.393101  
      20A1     2.396298     3A2     2.429761    21A1     2.429763  
       9B2     2.430211     9B1     2.430241    22A1     2.443108  
      10B2     2.706178    10B1     2.716021     4A2     2.818314  
      23A1     2.818573    24A1     2.856759    11B1     2.959711  
      11B2     2.959733    25A1     3.009116    26A1     3.484246  
      12B2     3.563911    12B1     3.567009    27A1     3.997008  
      28A1     9.040453    13B1    28.713619    13B2    28.713626  
      29A1    28.749980    30A1   176.174800  

    Final Occupation by Irrep:
             A1    A2    B1    B2 
    DOCC [     7,    0,    1,    2 ]
    SOCC [     0,    0,    1,    0 ]

  Energy converged.

  @DF-UKS Final Energy:  -167.32380542544320

   => Energetics <=

    Nuclear Repulsion Energy =             51.9586267144115723
    One-Electron Energy =                -330.0634248343745867
    Two-Electron Energy =                 117.2812143469921153
    DFT Exchange-Correlation Energy =      -6.4993328924723066
    Empirical Dispersion Energy =          -0.0008887600000000
    VV10 Nonlocal Energy =                  0.0000000000000000
    Total Energy =                       -167.3238054254431972


  UHF NO Occupations:
  HONO-2 :    2 B2 1.9979473
  HONO-1 :    1 B1 1.9783971
  HONO-0 :    2 B1 1.0000000
  LUNO+0 :    3 B1 0.0216029
  LUNO+1 :    3 B2 0.0020527
  LUNO+2 :    8 A1 0.0008826
  LUNO+3 :    9 A1 0.0002681


  //>>>>>>>>>>>>>>>>>>>>>>>>>>>>>>>>>>>//
  //          DSD-PBEP86-D3BJ          //
  //<<<<<<<<<<<<<<<<<<<<<<<<<<<<<<<<<<<//

   => Loading Basis Set <=

    Name: DEF2-TZVPD
    Role: ORBITAL
    Keyword: BASIS
    atoms 1 entry AR         line   641 file /home/yuant/psi4conda/share/psi4/basis/def2-tzvpd.gbs 
    atoms 2 entry C          line   134 file /home/yuant/psi4conda/share/psi4/basis/def2-tzvpd.gbs 
    atoms 3 entry N          line   171 file /home/yuant/psi4conda/share/psi4/basis/def2-tzvpd.gbs 
    atoms 4 entry O          line   208 file /home/yuant/psi4conda/share/psi4/basis/def2-tzvpd.gbs 


         ---------------------------------------------------------
                                   SCF
            by Justin Turney, Rob Parrish, Andy Simmonett
                             and Daniel Smith
                              UKS Reference
                        1 Threads,    500 MiB Core
         ---------------------------------------------------------

  ==> Geometry <==

    Molecular point group: c2v
    Full point group: C_inf_v

    Geometry (in Angstrom), charge = 0, multiplicity = 2:

       Center              X                  Y                   Z               Mass       
    ------------   -----------------  -----------------  -----------------  -----------------
      Gh(AR)          0.000000000000     0.000000000000    -4.036898000000    39.962383122510
         C            0.000000000000     0.000000000000     0.000000000000    12.000000000000
         N            0.000000000000     0.000000000000     1.231991000000    14.003074004780
         O            0.000000000000     0.000000000000    -1.175455000000    15.994914619560

  Running in c2v symmetry.

  Rotational constants: A = ************  B =      0.02427  C =      0.02427 [cm^-1]
  Rotational constants: A = ************  B =    727.57989  C =    727.57989 [MHz]
  Nuclear repulsion =   51.958626714411572

  Charge       = 0
  Multiplicity = 2
  Electrons    = 21
  Nalpha       = 11
  Nbeta        = 10

  ==> Algorithm <==

  SCF Algorithm Type is DF.
  DIIS enabled.
  MOM disabled.
  Fractional occupation disabled.
  Guess Type is READ.
  Energy threshold   = 1.00e-06
  Density threshold  = 1.00e-06
  Integral threshold = 0.00e+00

  ==> Primary Basis <==

  Basis Set: DEF2-TZVPD
    Blend: DEF2-TZVPD
    Number of shells: 56
    Number of basis function: 160
    Number of Cartesian functions: 184
    Spherical Harmonics?: true
    Max angular momentum: 3

  ==> DFT Potential <==

   => Composite Functional: DSD-PBEP86-D3BJ <= 

    DSD-PBEP86-D3BJ Dispersion-corrected SCS Double Hybrid XC Functional

    S. Kozuch, J.M.L. Martin, J. Comp. Chem., 34, 2327-2344, 2013


    Deriv               =              1
    GGA                 =           TRUE
    Meta                =          FALSE

    Exchange Hybrid     =           TRUE
    MP2 Hybrid          =           TRUE

   => Exchange Functionals <=

    0.3100     XC_GGA_X_PBE

   => Exact (HF) Exchange <=

    0.6900               HF 

   => Correlation Functionals <=

    0.4400     XC_GGA_C_P86

   => MP2 Correlation <=

    MP2 SCS Hybrid      =           TRUE
    MP2 OS Alpha        =       0.520000
    MP2 SS Alpha        =       0.220000

   => Molecular Quadrature <=

    Radial Scheme       =       TREUTLER
    Pruning Scheme      =           FLAT
    Nuclear Scheme      =       TREUTLER

    BS radius alpha     =              1
    Pruning alpha       =              1
    Radial Points       =             75
    Spherical Points    =            302
    Total Points        =          90399
    Total Blocks        =            759
    Max Points          =            256
    Max Functions       =            148

   => -D3BJ: Empirical Dispersion <=

    Grimme's -D3 (BJ-damping) Dispersion Correction
    Grimme S.; Ehrlich S.; Goerigk L. (2011), J. Comput. Chem., 32: 1456
    Parametrisation from: 
    S. Kozuch, J.M.L. Martin, J. Comp. Chem., 34, 2327-2344, 2013


        S6 =   4.800000E-01
        S8 =   0.000000E+00
        A1 =   0.000000E+00
        A2 =   5.600000E+00

   => Loading Basis Set <=

    Name: (DEF2-TZVPD AUX)
    Role: JKFIT
    Keyword: DF_BASIS_SCF
    atoms 1 entry AR         line  1074 file /home/yuant/psi4conda/share/psi4/basis/def2-tzvp-jkfit.gbs 
    atoms 2 entry C          line   203 file /home/yuant/psi4conda/share/psi4/basis/def2-tzvp-jkfit.gbs 
    atoms 3 entry N          line   263 file /home/yuant/psi4conda/share/psi4/basis/def2-tzvp-jkfit.gbs 
    atoms 4 entry O          line   323 file /home/yuant/psi4conda/share/psi4/basis/def2-tzvp-jkfit.gbs 

  Unable to find file 180, defaulting to SAD guess.

  Computing basis projection from DEF2-SVP to DEF2-TZVPD

  ==> Pre-Iterations <==

   -------------------------------------------------------
    Irrep   Nso     Nmo     Nalpha   Nbeta   Ndocc  Nsocc
   -------------------------------------------------------
     A1        72      72       0       0       0       0
     A2        16      16       0       0       0       0
     B1        36      36       0       0       0       0
     B2        36      36       0       0       0       0
   -------------------------------------------------------
    Total     160     160      11      10      10       1
   -------------------------------------------------------

  ==> Integral Setup <==

  ==> MemDFJK: Density-Fitted J/K Matrices <==

    J tasked:                   Yes
    K tasked:                   Yes
    wK tasked:                   No
    OpenMP threads:               1
    Memory (MB):                375
    Algorithm:                 Core
    Schwarz Cutoff:           1E-12
    Mask sparsity (%):       8.8437
    Fitting Condition:        1E-12

   => Auxiliary Basis Set <=

  Basis Set: (DEF2-TZVPD AUX)
    Blend: DEF2-TZVP-JKFIT
    Number of shells: 113
    Number of basis function: 357
    Number of Cartesian functions: 430
    Spherical Harmonics?: true
    Max angular momentum: 4

  Minimum eigenvalue in the overlap matrix is 7.6327450214E-05.
  Using Symmetric Orthogonalization.

  SCF Guess: Orbitals guess was supplied from a previous computation.

  ==> Iterations <==

                           Total Energy        Delta E     RMS |[F,P]|

   @DF-UKS iter   0:  -167.42777268578254   -1.67428e+02   1.92406e-02 
   @DF-UKS iter   1:  -167.52536412552467   -9.75914e-02   4.42878e-04 
   @DF-UKS iter   2:  -167.52582899064706   -4.64865e-04   1.28541e-04 DIIS
   @DF-UKS iter   3:  -167.52587160539861   -4.26148e-05   7.78373e-05 DIIS
   @DF-UKS iter   4:  -167.52589549978904   -2.38944e-05   2.11668e-05 DIIS
   @DF-UKS iter   5:  -167.52589940000240   -3.90021e-06   1.24051e-05 DIIS
   @DF-UKS iter   6:  -167.52590185698844   -2.45699e-06   8.38510e-06 DIIS
   @DF-UKS iter   7:  -167.52590398934018   -2.13235e-06   6.03536e-06 DIIS
   @DF-UKS iter   8:  -167.52590521784012   -1.22850e-06   1.42466e-06 DIIS
   @DF-UKS iter   9:  -167.52590526091578   -4.30757e-08   2.54442e-07 DIIS

  ==> Post-Iterations <==

   @Spin Contamination Metric:   4.696450716E-02
   @S^2 Expected:                7.500000000E-01
   @S^2 Observed:                7.969645072E-01
   @S   Expected:                5.000000000E-01
   @S   Observed:                5.000000000E-01

    Orbital Energies [Eh]
    ---------------------

    Alpha Occupied:                                                       

       1A1   -20.132748     2A1   -15.168386     3A1   -10.993956  
       4A1    -1.395197     5A1    -1.171806     6A1    -0.718606  
       1B1    -0.651148     1B2    -0.624528     7A1    -0.572830  
       2B1    -0.486713     2B2    -0.435090  

    Alpha Virtual:                                                        

       8A1     0.028372     9A1     0.060028     3B1     0.082948  
       3B2     0.084533     4B1     0.107421     4B2     0.118979  
      10A1     0.119349     5B1     0.125546     5B2     0.134963  
      11A1     0.155520    12A1     0.175404    13A1     0.216875  
       1A2     0.225639    14A1     0.225811     6B1     0.240103  
       6B2     0.247377    15A1     0.311428    16A1     0.363902  
       7B1     0.375917     7B2     0.380200     2A2     0.385410  
      17A1     0.385477    18A1     0.389099     8B1     0.425695  
       8B2     0.428423     3A2     0.443299    19A1     0.443485  
      20A1     0.458437     9B1     0.458647     9B2     0.460937  
      10B1     0.507450    10B2     0.513461    21A1     0.529137  
      22A1     0.554311     4A2     0.577610    23A1     0.577733  
      24A1     0.617277    25A1     0.663913    11B1     0.706567  
      11B2     0.711928    26A1     0.756249    12B1     0.761334  
      12B2     0.783070    27A1     0.878235     5A2     0.908741  
      28A1     0.908841    29A1     0.931774    13B1     0.962767  
      13B2     0.973769    30A1     1.082613    31A1     1.113203  
      14B1     1.210996    32A1     1.220609    14B2     1.231457  
       6A2     1.422271    33A1     1.422688    15B1     1.534073  
      15B2     1.534376     7A2     1.631655    34A1     1.631657  
      16B1     1.674719    16B2     1.675505    35A1     1.680756  
      36A1     1.718178    17B1     1.740126    37A1     1.745104  
      17B2     1.761443    18B1     1.816464    18B2     1.823308  
      38A1     1.867272     8A2     1.867385    39A1     1.877980  
      40A1     2.036382    41A1     2.135298    19B1     2.318258  
      19B2     2.340993    42A1     2.386694    43A1     2.598177  
      44A1     2.670941    20B1     2.677170    20B2     2.710965  
      21B1     2.738737    21B2     2.738774     9A2     2.984232  
      45A1     2.984318    22B1     3.100470    22B2     3.118811  
      10A2     3.182490    46A1     3.182537    23B1     3.289855  
      23B2     3.314129    47A1     3.442435    48A1     3.600882  
      49A1     3.790330    24B1     3.808382    24B2     3.825770  
      25B1     3.997976    25B2     3.997976    11A2     3.999070  
      50A1     3.999071    26B1     4.027865    26B2     4.027978  
      27B2     4.088278    27B1     4.088285    51A1     4.112886  
      52A1     4.519870    12A2     4.521116    28B1     4.541134  
      28B2     4.541188    53A1     4.664672    54A1     4.708238  
      55A1     4.865551    13A2     4.866645    56A1     4.935715  
      29B1     5.191058    29B2     5.224851    30B1     5.319125  
      30B2     5.319141    31B1     5.557091    31B2     5.585513  
      57A1     5.777662    14A2     5.822730    58A1     5.824522  
      59A1     5.935879    60A1     6.553711    15A2     6.553712  
      32B1     6.592542    32B2     6.592639    61A1     6.659372  
      16A2     6.659463    62A1     6.696069    33B1     6.838277  
      33B2     6.859672    34B1     7.113256    34B2     7.136171  
      63A1     7.400416    64A1     7.644778    65A1     8.063099  
      35B1    13.309540    35B2    13.309555    66A1    13.429912  
      67A1    24.447743    68A1    33.010877    69A1    45.195561  
      36B1    57.649960    36B2    57.649965    70A1    57.797226  
      71A1    58.050483    72A1   177.328949  

    Beta Occupied:                                                        

       1A1   -20.118045     2A1   -15.147820     3A1   -10.999448  
       4A1    -1.364865     5A1    -1.101141     6A1    -0.700218  
       1B2    -0.619341     1B1    -0.555458     7A1    -0.539458  
       2B2    -0.407585  

    Beta Virtual:                                                         

       2B1    -0.103892     8A1     0.029266     9A1     0.060487  
       3B1     0.083279     3B2     0.084261     4B2     0.120866  
      10A1     0.120987     4B1     0.121409     5B2     0.134086  
      11A1     0.156534    12A1     0.176567     5B1     0.185459  
      13A1     0.217160     1A2     0.226466    14A1     0.226773  
       6B2     0.250113     6B1     0.264326    15A1     0.314983  
      16A1     0.366045     7B1     0.376489     7B2     0.379061  
       2A2     0.386819    17A1     0.386886    18A1     0.391514  
       8B2     0.428360     8B1     0.431281     3A2     0.449457  
      19A1     0.449722    20A1     0.459169     9B2     0.461521  
       9B1     0.465029    10B1     0.512644    10B2     0.512772  
      21A1     0.530360    22A1     0.559248     4A2     0.580566  
      23A1     0.580810    24A1     0.617856    25A1     0.664732  
      11B2     0.711202    11B1     0.713234    26A1     0.763722  
      12B2     0.791557    12B1     0.808738    27A1     0.883833  
       5A2     0.906249    28A1     0.906736    29A1     0.936859  
      13B2     0.975603    13B1     0.982171    30A1     1.085164  
      31A1     1.128665    32A1     1.225252    14B2     1.233234  
      14B1     1.239730     6A2     1.465253    33A1     1.467120  
      15B1     1.533797    15B2     1.534084     7A2     1.631719  
      34A1     1.631729    16B1     1.675460    16B2     1.675461  
      35A1     1.681305    36A1     1.726103    37A1     1.745915  
      17B2     1.763560    17B1     1.763975    18B1     1.815968  
      18B2     1.818451    38A1     1.878023     8A2     1.890894  
      39A1     1.891383    40A1     2.041518    41A1     2.136241  
      19B2     2.346943    19B1     2.355543    42A1     2.393827  
      43A1     2.616146    44A1     2.681735    20B2     2.724066  
      21B2     2.730598    20B1     2.730613    21B1     2.738892  
       9A2     2.992677    45A1     2.993155    22B2     3.120419  
      22B1     3.126357    10A2     3.169372    46A1     3.169442  
      23B2     3.317808    23B1     3.323545    47A1     3.452534  
      48A1     3.606701    49A1     3.801173    24B1     3.823070  
      24B2     3.826473    25B1     3.997879    25B2     3.997879  
      11A2     3.998954    50A1     3.998955    26B1     4.027713  
      26B2     4.027793    51A1     4.113315    27B2     4.134688  
      27B1     4.135382    28B1     4.541054    28B2     4.541070  
      12A2     4.551156    52A1     4.552786    53A1     4.671934  
      54A1     4.713302    13A2     4.925324    55A1     4.927689  
      56A1     4.953756    29B2     5.233686    29B1     5.236545  
      30B2     5.342656    30B1     5.342717    31B1     5.586942  
      31B2     5.590291    57A1     5.793027    14A2     5.838046  
      58A1     5.838544    59A1     5.946278    15A2     6.553847  
      60A1     6.553852    32B1     6.592481    32B2     6.592512  
      16A2     6.695661    61A1     6.695938    62A1     6.696700  
      33B1     6.860641    33B2     6.863204    34B2     7.140347  
      34B1     7.141406    63A1     7.412390    64A1     7.651325  
      65A1     8.063028    35B1    13.309428    35B2    13.309433  
      66A1    13.429785    67A1    24.444395    68A1    33.025259  
      69A1    45.204640    36B1    57.649836    36B2    57.649838  
      70A1    57.797098    71A1    58.050360    72A1   177.328842  

    Final Occupation by Irrep:
             A1    A2    B1    B2 
    DOCC [     7,    0,    1,    2 ]
    SOCC [     0,    0,    1,    0 ]

  Energy converged.

  @DF-UKS Final Energy:  -167.52590526091578

   => Energetics <=

    Nuclear Repulsion Energy =             51.9586267144115723
    One-Electron Energy =                -330.4033578292806510
    Two-Electron Energy =                 117.4289309623587627
    DFT Exchange-Correlation Energy =      -6.5092163484054852
    Empirical Dispersion Energy =          -0.0008887600000000
    VV10 Nonlocal Energy =                  0.0000000000000000
    Total Energy =                       -167.5259052609157777


  UHF NO Occupations:
  HONO-2 :    2 B2 1.9982280
  HONO-1 :    1 B1 1.9799103
  HONO-0 :    2 B1 1.0000000
  LUNO+0 :    3 B1 0.0200897
  LUNO+1 :    3 B2 0.0017720
  LUNO+2 :    8 A1 0.0012287
  LUNO+3 :    9 A1 0.0002820



Properties will be evaluated at   0.000000,   0.000000,   0.000000 [a0]

Properties computed using the SCF density matrix

  Nuclear Dipole Moment: [e a0]
     X:     0.0000      Y:     0.0000      Z:    -1.4734

  Electronic Dipole Moment: [e a0]
     X:     0.0000      Y:     0.0000      Z:     1.2048

  Dipole Moment: [e a0]
     X:     0.0000      Y:     0.0000      Z:    -0.2686     Total:     0.2686

  Dipole Moment: [D]
     X:     0.0000      Y:     0.0000      Z:    -0.6828     Total:     0.6828


*** tstop() called on linux-en55 at Wed Jan  9 03:37:40 2019
Module time:
	user time   =      11.01 seconds =       0.18 minutes
	system time =       0.06 seconds =       0.00 minutes
	total time  =         11 seconds =       0.18 minutes
Total time:
	user time   =      11.01 seconds =       0.18 minutes
	system time =       0.06 seconds =       0.00 minutes
	total time  =         11 seconds =       0.18 minutes

*** tstart() called on linux-en55
*** at Wed Jan  9 03:37:40 2019

   => Loading Basis Set <=

    Name: (DEF2-TZVPD AUX)
    Role: RIFIT
    Keyword: DF_BASIS_MP2
    atoms 1 entry AR         line   966 file /home/yuant/psi4conda/share/psi4/basis/def2-tzvpd-ri.gbs 
    atoms 2 entry C          line   211 file /home/yuant/psi4conda/share/psi4/basis/def2-tzvpd-ri.gbs 
    atoms 3 entry N          line   266 file /home/yuant/psi4conda/share/psi4/basis/def2-tzvpd-ri.gbs 
    atoms 4 entry O          line   321 file /home/yuant/psi4conda/share/psi4/basis/def2-tzvpd-ri.gbs 

	 --------------------------------------------------------
	                          DF-MP2                         
	      2nd-Order Density-Fitted Moller-Plesset Theory     
	              UMP2 Wavefunction,   1 Threads             
	                                                         
	        Rob Parrish, Justin Turney, Andy Simmonett,      
	           Ed Hohenstein, and C. David Sherrill          
	 --------------------------------------------------------

	 --------------------------------------------------------
	                 NBF =   160, NAUX =   405
	 --------------------------------------------------------
	   CLASS    FOCC     OCC    AOCC    AVIR     VIR    FVIR
	   ALPHA       0      11      11     149     149       0
	    BETA       0      10      10     150     150       0
	 --------------------------------------------------------

	-----------------------------------------------------------
	 ==================> DF-MP2 Energies <==================== 
	-----------------------------------------------------------
	 Reference Energy          =    -167.5259052609157777 [Eh]
	 Singles Energy            =      -0.0000000002414318 [Eh]
	 Same-Spin Energy          =      -0.1669039802976585 [Eh]
	 Opposite-Spin Energy      =      -0.4930312283668539 [Eh]
	 Correlation Energy        =      -0.6599352089059441 [Eh]
	 Total Energy              =    -168.1858404698217271 [Eh]
	-----------------------------------------------------------
	 ================> DF-SCS-MP2 Energies <================== 
	-----------------------------------------------------------
	 SCS Same-Spin Scale       =       0.2200000000000000 [-]
	 SCS Opposite-Spin Scale   =       0.5200000000000000 [-]
	 SCS Same-Spin Energy      =      -0.0367188756654849 [Eh]
	 SCS Opposite-Spin Energy  =      -0.2563762387507640 [Eh]
	 SCS Correlation Energy    =      -0.2930951146576807 [Eh]
	 SCS Total Energy          =    -167.8190003755734665 [Eh]
	-----------------------------------------------------------



    DSD-PBEP86-D3BJ Energy Summary
    -------------------------
    DFT Reference Energy                  =  -167.5259052609157777
    Scaled MP2 Correlation                =    -0.2930951146576807
    @Final double-hybrid DFT total energy =  -167.8190003755734665


*** tstop() called on linux-en55 at Wed Jan  9 03:37:41 2019
Module time:
	user time   =       0.57 seconds =       0.01 minutes
	system time =       0.02 seconds =       0.00 minutes
	total time  =          1 seconds =       0.02 minutes
Total time:
	user time   =      11.58 seconds =       0.19 minutes
	system time =       0.08 seconds =       0.00 minutes
	total time  =         12 seconds =       0.20 minutes

       N-Body: Complex Energy (fragments = (2,), basis = (1, 2):  -167.81900037557347)

       N-Body: Computing complex (2/2) with fragments (1,) in the basis of fragments (1, 2).


*** tstart() called on linux-en55
*** at Wed Jan  9 03:37:41 2019


  //>>>>>>>>>>>>>>>>>>>>>>>>>>>>>>>>>>>//
  //     Guess SCF, DEF2-SVP Basis     //
  //<<<<<<<<<<<<<<<<<<<<<<<<<<<<<<<<<<<//

   => Loading Basis Set <=

    Name: DEF2-SVP
    Role: ORBITAL
    Keyword: BASIS
    atoms 1 entry AR         line   384 file /home/yuant/psi4conda/share/psi4/basis/def2-svp.gbs 
    atoms 2 entry C          line    90 file /home/yuant/psi4conda/share/psi4/basis/def2-svp.gbs 
    atoms 3 entry N          line   110 file /home/yuant/psi4conda/share/psi4/basis/def2-svp.gbs 
    atoms 4 entry O          line   130 file /home/yuant/psi4conda/share/psi4/basis/def2-svp.gbs 


         ---------------------------------------------------------
                           SCF Castup computation                  
         ---------------------------------------------------------
                                   SCF
            by Justin Turney, Rob Parrish, Andy Simmonett
                             and Daniel Smith
                              UKS Reference
                        1 Threads,    500 MiB Core
         ---------------------------------------------------------

  ==> Geometry <==

    Molecular point group: c2v
    Full point group: C_inf_v

    Geometry (in Angstrom), charge = 0, multiplicity = 1:

       Center              X                  Y                   Z               Mass       
    ------------   -----------------  -----------------  -----------------  -----------------
         AR           0.000000000000     0.000000000000    -4.036898000000    39.962383122510
      Gh(C)           0.000000000000     0.000000000000     0.000000000000    12.000000000000
      Gh(N)           0.000000000000     0.000000000000     1.231991000000    14.003074004780
      Gh(O)           0.000000000000     0.000000000000    -1.175455000000    15.994914619560

  Running in c2v symmetry.

  Rotational constants: A = ************  B =      0.02427  C =      0.02427 [cm^-1]
  Rotational constants: A = ************  B =    727.57989  C =    727.57989 [MHz]
  Nuclear repulsion =    0.000000000000000

  Charge       = 0
  Multiplicity = 1
  Electrons    = 18
  Nalpha       = 9
  Nbeta        = 9

  ==> Algorithm <==

  SCF Algorithm Type is DF.
  DIIS enabled.
  MOM disabled.
  Fractional occupation disabled.
  Guess Type is SAD.
  Energy threshold   = 1.00e-06
  Density threshold  = 1.00e-06
  Integral threshold = 0.00e+00

  ==> Primary Basis <==

  Basis Set: DEF2-SVP
    Blend: DEF2-SVP
    Number of shells: 26
    Number of basis function: 60
    Number of Cartesian functions: 64
    Spherical Harmonics?: true
    Max angular momentum: 2

  ==> DFT Potential <==

   => Composite Functional: DSD-PBEP86-D3BJ <= 

    DSD-PBEP86-D3BJ Dispersion-corrected SCS Double Hybrid XC Functional

    S. Kozuch, J.M.L. Martin, J. Comp. Chem., 34, 2327-2344, 2013


    Deriv               =              1
    GGA                 =           TRUE
    Meta                =          FALSE

    Exchange Hybrid     =           TRUE
    MP2 Hybrid          =           TRUE

   => Exchange Functionals <=

    0.3100     XC_GGA_X_PBE

   => Exact (HF) Exchange <=

    0.6900               HF 

   => Correlation Functionals <=

    0.4400     XC_GGA_C_P86

   => MP2 Correlation <=

    MP2 SCS Hybrid      =           TRUE
    MP2 OS Alpha        =       0.520000
    MP2 SS Alpha        =       0.220000

   => Molecular Quadrature <=

    Radial Scheme       =       TREUTLER
    Pruning Scheme      =           FLAT
    Nuclear Scheme      =       TREUTLER

    BS radius alpha     =              1
    Pruning alpha       =              1
    Radial Points       =             75
    Spherical Points    =            302
    Total Points        =          86150
    Total Blocks        =            712
    Max Points          =            255
    Max Functions       =             58

   => -D3BJ: Empirical Dispersion <=

    Grimme's -D3 (BJ-damping) Dispersion Correction
    Grimme S.; Ehrlich S.; Goerigk L. (2011), J. Comput. Chem., 32: 1456
    Parametrisation from: 
    S. Kozuch, J.M.L. Martin, J. Comp. Chem., 34, 2327-2344, 2013


        S6 =   4.800000E-01
        S8 =   0.000000E+00
        A1 =   0.000000E+00
        A2 =   5.600000E+00

   => Loading Basis Set <=

    Name: (DEF2-SVP AUX)
    Role: JKFIT
    Keyword: DF_BASIS_SCF
    atoms 1 entry AR         line  1074 file /home/yuant/psi4conda/share/psi4/basis/def2-svp-jkfit.gbs 
    atoms 2 entry C          line   203 file /home/yuant/psi4conda/share/psi4/basis/def2-svp-jkfit.gbs 
    atoms 3 entry N          line   263 file /home/yuant/psi4conda/share/psi4/basis/def2-svp-jkfit.gbs 
    atoms 4 entry O          line   323 file /home/yuant/psi4conda/share/psi4/basis/def2-svp-jkfit.gbs 

  ==> Pre-Iterations <==

   -------------------------------------------------------
    Irrep   Nso     Nmo     Nalpha   Nbeta   Ndocc  Nsocc
   -------------------------------------------------------
     A1        30      30       0       0       0       0
     A2         4       4       0       0       0       0
     B1        13      13       0       0       0       0
     B2        13      13       0       0       0       0
   -------------------------------------------------------
    Total      60      60       9       9       9       0
   -------------------------------------------------------

  ==> Integral Setup <==

  ==> DiskDFJK: Density-Fitted J/K Matrices <==

    J tasked:                  Yes
    K tasked:                  Yes
    wK tasked:                  No
    OpenMP threads:              1
    Integrals threads:           1
    Memory (MB):               375
    Algorithm:                Core
    Integral Cache:           NONE
    Schwarz Cutoff:          1E-12
    Fitting Condition:       1E-12

   => Auxiliary Basis Set <=

  Basis Set: (DEF2-SVP AUX)
    Blend: DEF2-SVP-JKFIT
    Number of shells: 113
    Number of basis function: 357
    Number of Cartesian functions: 430
    Spherical Harmonics?: true
    Max angular momentum: 4

  Minimum eigenvalue in the overlap matrix is 3.6476207012E-03.
  Using Symmetric Orthogonalization.

  SCF Guess: Superposition of Atomic Densities via on-the-fly atomic UHF.

  ==> Iterations <==

                           Total Energy        Delta E     RMS |[F,P]|

   @DF-UKS iter   0:  -526.90910702623796   -5.26909e+02   7.56246e-03 
   @DF-UKS iter   1:  -526.91805809617063   -8.95107e-03   1.19484e-03 
   @DF-UKS iter   2:  -526.91864368064876   -5.85584e-04   4.12412e-04 DIIS
   @DF-UKS iter   3:  -526.91871868422140   -7.50036e-05   1.20105e-05 DIIS
   @DF-UKS iter   4:  -526.91871892881363   -2.44592e-07   8.08599e-07 DIIS

  ==> Post-Iterations <==

   @Spin Contamination Metric:   7.105427358E-15
   @S^2 Expected:                0.000000000E+00
   @S^2 Observed:                7.105427358E-15
   @S   Expected:                0.000000000E+00
   @S   Observed:                0.000000000E+00

    Orbital Energies [Eh]
    ---------------------

    Alpha Occupied:                                                       

       1A1  -117.191020     2A1   -11.850448     3A1    -9.218663  
       1B1    -9.218603     1B2    -9.218603     4A1    -1.144546  
       2B1    -0.516525     2B2    -0.516525     5A1    -0.516371  

    Alpha Virtual:                                                        

       6A1     0.148337     7A1     0.268592     3B1     0.366902  
       3B2     0.366902     8A1     0.469105     4B2     0.622562  
       4B1     0.622562     9A1     0.665274    10A1     0.714849  
      11A1     0.800359     5B2     0.872621     5B1     0.872621  
      12A1     0.900162     1A2     0.967678    13A1     0.967680  
       6B1     0.970784     6B2     0.970784    14A1     0.990517  
       7B2     1.211535     7B1     1.211535    15A1     1.226842  
      16A1     1.459625    17A1     1.731563    18A1     2.463014  
       8B1     2.586472     8B2     2.586472    19A1     2.748874  
       2A2     2.748896     9B1     2.852022     9B2     2.852022  
      20A1     3.061315    21A1     3.217600    22A1     3.560823  
       3A2     3.560837    10B2     3.984504    10B1     3.984504  
      11B2     4.230060    11B1     4.230060    23A1     4.244467  
       4A2     4.244468    24A1     4.340801    12B2     5.028631  
      12B1     5.028631    25A1     5.045879    13B1     5.578753  
      13B2     5.578753    26A1     6.289385    27A1     7.290851  
      28A1    19.773856    29A1    26.361908    30A1    35.001044  

    Beta Occupied:                                                        

       1A1  -117.191020     2A1   -11.850448     3A1    -9.218663  
       1B1    -9.218603     1B2    -9.218603     4A1    -1.144546  
       2B1    -0.516525     2B2    -0.516525     5A1    -0.516371  

    Beta Virtual:                                                         

       6A1     0.148337     7A1     0.268592     3B1     0.366902  
       3B2     0.366902     8A1     0.469105     4B2     0.622562  
       4B1     0.622562     9A1     0.665274    10A1     0.714849  
      11A1     0.800359     5B2     0.872621     5B1     0.872621  
      12A1     0.900162     1A2     0.967678    13A1     0.967680  
       6B1     0.970784     6B2     0.970784    14A1     0.990517  
       7B2     1.211535     7B1     1.211535    15A1     1.226842  
      16A1     1.459625    17A1     1.731563    18A1     2.463014  
       8B1     2.586472     8B2     2.586472    19A1     2.748874  
       2A2     2.748896     9B1     2.852022     9B2     2.852022  
      20A1     3.061315    21A1     3.217600    22A1     3.560823  
       3A2     3.560837    10B2     3.984504    10B1     3.984504  
      11B2     4.230060    11B1     4.230060    23A1     4.244467  
       4A2     4.244468    24A1     4.340801    12B2     5.028631  
      12B1     5.028631    25A1     5.045879    13B1     5.578753  
      13B2     5.578753    26A1     6.289385    27A1     7.290851  
      28A1    19.773856    29A1    26.361908    30A1    35.001044  

    Final Occupation by Irrep:
             A1    A2    B1    B2 
    DOCC [     5,    0,    2,    2 ]
    SOCC [     0,    0,    0,    0 ]

  Energy converged.

  @DF-UKS Final Energy:  -526.91871892881363

   => Energetics <=

    Nuclear Repulsion Energy =              0.0000000000000000
    One-Electron Energy =                -728.2177279196190511
    Two-Electron Energy =                 210.9542502065659448
    DFT Exchange-Correlation Energy =      -9.6552412157604692
    Empirical Dispersion Energy =           0.0000000000000000
    VV10 Nonlocal Energy =                  0.0000000000000000
    Total Energy =                       -526.9187189288136324


  UHF NO Occupations:
  HONO-2 :    2 B1 2.0000000
  HONO-1 :    5 A1 2.0000000
  HONO-0 :    2 B2 2.0000000
  LUNO+0 :    6 A1 0.0000000
  LUNO+1 :    3 B1 0.0000000
  LUNO+2 :    3 B2 0.0000000
  LUNO+3 :    7 A1 0.0000000


  //>>>>>>>>>>>>>>>>>>>>>>>>>>>>>>>>>>>//
  //          DSD-PBEP86-D3BJ          //
  //<<<<<<<<<<<<<<<<<<<<<<<<<<<<<<<<<<<//

   => Loading Basis Set <=

    Name: DEF2-TZVPD
    Role: ORBITAL
    Keyword: BASIS
    atoms 1 entry AR         line   641 file /home/yuant/psi4conda/share/psi4/basis/def2-tzvpd.gbs 
    atoms 2 entry C          line   134 file /home/yuant/psi4conda/share/psi4/basis/def2-tzvpd.gbs 
    atoms 3 entry N          line   171 file /home/yuant/psi4conda/share/psi4/basis/def2-tzvpd.gbs 
    atoms 4 entry O          line   208 file /home/yuant/psi4conda/share/psi4/basis/def2-tzvpd.gbs 


         ---------------------------------------------------------
                                   SCF
            by Justin Turney, Rob Parrish, Andy Simmonett
                             and Daniel Smith
                              UKS Reference
                        1 Threads,    500 MiB Core
         ---------------------------------------------------------

  ==> Geometry <==

    Molecular point group: c2v
    Full point group: C_inf_v

    Geometry (in Angstrom), charge = 0, multiplicity = 1:

       Center              X                  Y                   Z               Mass       
    ------------   -----------------  -----------------  -----------------  -----------------
         AR           0.000000000000     0.000000000000    -4.036898000000    39.962383122510
      Gh(C)           0.000000000000     0.000000000000     0.000000000000    12.000000000000
      Gh(N)           0.000000000000     0.000000000000     1.231991000000    14.003074004780
      Gh(O)           0.000000000000     0.000000000000    -1.175455000000    15.994914619560

  Running in c2v symmetry.

  Rotational constants: A = ************  B =      0.02427  C =      0.02427 [cm^-1]
  Rotational constants: A = ************  B =    727.57989  C =    727.57989 [MHz]
  Nuclear repulsion =    0.000000000000000

  Charge       = 0
  Multiplicity = 1
  Electrons    = 18
  Nalpha       = 9
  Nbeta        = 9

  ==> Algorithm <==

  SCF Algorithm Type is DF.
  DIIS enabled.
  MOM disabled.
  Fractional occupation disabled.
  Guess Type is READ.
  Energy threshold   = 1.00e-06
  Density threshold  = 1.00e-06
  Integral threshold = 0.00e+00

  ==> Primary Basis <==

  Basis Set: DEF2-TZVPD
    Blend: DEF2-TZVPD
    Number of shells: 56
    Number of basis function: 160
    Number of Cartesian functions: 184
    Spherical Harmonics?: true
    Max angular momentum: 3

  ==> DFT Potential <==

   => Composite Functional: DSD-PBEP86-D3BJ <= 

    DSD-PBEP86-D3BJ Dispersion-corrected SCS Double Hybrid XC Functional

    S. Kozuch, J.M.L. Martin, J. Comp. Chem., 34, 2327-2344, 2013


    Deriv               =              1
    GGA                 =           TRUE
    Meta                =          FALSE

    Exchange Hybrid     =           TRUE
    MP2 Hybrid          =           TRUE

   => Exchange Functionals <=

    0.3100     XC_GGA_X_PBE

   => Exact (HF) Exchange <=

    0.6900               HF 

   => Correlation Functionals <=

    0.4400     XC_GGA_C_P86

   => MP2 Correlation <=

    MP2 SCS Hybrid      =           TRUE
    MP2 OS Alpha        =       0.520000
    MP2 SS Alpha        =       0.220000

   => Molecular Quadrature <=

    Radial Scheme       =       TREUTLER
    Pruning Scheme      =           FLAT
    Nuclear Scheme      =       TREUTLER

    BS radius alpha     =              1
    Pruning alpha       =              1
    Radial Points       =             75
    Spherical Points    =            302
    Total Points        =          90399
    Total Blocks        =            759
    Max Points          =            256
    Max Functions       =            148

   => -D3BJ: Empirical Dispersion <=

    Grimme's -D3 (BJ-damping) Dispersion Correction
    Grimme S.; Ehrlich S.; Goerigk L. (2011), J. Comput. Chem., 32: 1456
    Parametrisation from: 
    S. Kozuch, J.M.L. Martin, J. Comp. Chem., 34, 2327-2344, 2013


        S6 =   4.800000E-01
        S8 =   0.000000E+00
        A1 =   0.000000E+00
        A2 =   5.600000E+00

   => Loading Basis Set <=

    Name: (DEF2-TZVPD AUX)
    Role: JKFIT
    Keyword: DF_BASIS_SCF
    atoms 1 entry AR         line  1074 file /home/yuant/psi4conda/share/psi4/basis/def2-tzvp-jkfit.gbs 
    atoms 2 entry C          line   203 file /home/yuant/psi4conda/share/psi4/basis/def2-tzvp-jkfit.gbs 
    atoms 3 entry N          line   263 file /home/yuant/psi4conda/share/psi4/basis/def2-tzvp-jkfit.gbs 
    atoms 4 entry O          line   323 file /home/yuant/psi4conda/share/psi4/basis/def2-tzvp-jkfit.gbs 

  Reading orbitals from file 180, no projection.


  Computing basis projection from DEF2-SVP to DEF2-TZVPD

  ==> Pre-Iterations <==

   -------------------------------------------------------
    Irrep   Nso     Nmo     Nalpha   Nbeta   Ndocc  Nsocc
   -------------------------------------------------------
     A1        72      72       0       0       0       0
     A2        16      16       0       0       0       0
     B1        36      36       0       0       0       0
     B2        36      36       0       0       0       0
   -------------------------------------------------------
    Total     160     160       9       9       9       0
   -------------------------------------------------------

  ==> Integral Setup <==

  ==> MemDFJK: Density-Fitted J/K Matrices <==

    J tasked:                   Yes
    K tasked:                   Yes
    wK tasked:                   No
    OpenMP threads:               1
    Memory (MB):                375
    Algorithm:                 Core
    Schwarz Cutoff:           1E-12
    Mask sparsity (%):       8.8437
    Fitting Condition:        1E-12

   => Auxiliary Basis Set <=

  Basis Set: (DEF2-TZVPD AUX)
    Blend: DEF2-TZVP-JKFIT
    Number of shells: 113
    Number of basis function: 357
    Number of Cartesian functions: 430
    Spherical Harmonics?: true
    Max angular momentum: 4

  Minimum eigenvalue in the overlap matrix is 7.6327450214E-05.
  Using Symmetric Orthogonalization.

  SCF Guess: Orbitals guess was supplied from a previous computation.

  ==> Iterations <==

                           Total Energy        Delta E     RMS |[F,P]|

   @DF-UKS iter   0:  -527.06865221553574   -5.27069e+02   1.50202e-02 
   @DF-UKS iter   1:  -527.09800228593872   -2.93501e-02   2.65806e-04 
   @DF-UKS iter   2:  -527.09827006890669   -2.67783e-04   3.22043e-05 DIIS
   @DF-UKS iter   3:  -527.09828004686847   -9.97796e-06   1.29758e-05 DIIS
   @DF-UKS iter   4:  -527.09828049771659   -4.50848e-07   1.88210e-06 DIIS
   @DF-UKS iter   5:  -527.09828052334035   -2.56238e-08   2.45301e-07 DIIS

  ==> Post-Iterations <==

   @Spin Contamination Metric:  -1.953992523E-14
   @S^2 Expected:                0.000000000E+00
   @S^2 Observed:               -1.953992523E-14
   @S   Expected:                0.000000000E+00
   @S   Observed:                0.000000000E+00

    Orbital Energies [Eh]
    ---------------------

    Alpha Occupied:                                                       

       1A1  -117.244452     2A1   -11.868615     3A1    -9.229407  
       1B2    -9.229402     1B1    -9.229402     4A1    -1.163001  
       5A1    -0.531640     2B1    -0.531559     2B2    -0.531559  

    Alpha Virtual:                                                        

       6A1     0.033877     7A1     0.063562     3B2     0.087975  
       3B1     0.087975     8A1     0.105080     4B2     0.119447  
       4B1     0.119447     9A1     0.155878    10A1     0.160243  
       5B1     0.223687     5B2     0.223687    11A1     0.254463  
      12A1     0.272643     1A2     0.272646    13A1     0.296915  
      14A1     0.301155     2A2     0.301165     6B2     0.329152  
       6B1     0.329152     7B2     0.335898     7B1     0.335898  
      15A1     0.346151    16A1     0.393588    17A1     0.420644  
      18A1     0.460318     8B2     0.498415     8B1     0.498415  
       3A2     0.510397    19A1     0.510403     9B2     0.594385  
       9B1     0.594385    20A1     0.608436    21A1     0.625288  
      10B1     0.638730    10B2     0.638730    22A1     0.660934  
       4A2     0.660945    23A1     0.732791    11B1     0.740479  
      11B2     0.740479    12B1     0.794871    12B2     0.794871  
      24A1     0.801961     5A2     0.801962    25A1     0.803383  
      26A1     0.844767    13B1     0.866360    13B2     0.866360  
      27A1     0.943843    28A1     1.043946    29A1     1.164422  
       6A2     1.275008    30A1     1.275008    14B1     1.285245  
      14B2     1.285245    31A1     1.319751    32A1     1.434257  
      33A1     1.546578    15B1     1.597494    15B2     1.597494  
      34A1     1.689997    16B1     1.782129    16B2     1.782129  
      35A1     1.861077    36A1     1.916536     7A2     1.916550  
      17B1     2.093136    17B2     2.093136    18B1     2.297125  
      18B2     2.297125    37A1     2.311043    38A1     2.381110  
      39A1     2.429940     8A2     2.429949    19B1     2.471556  
      19B2     2.471556    40A1     2.519621     9A2     2.519621  
      41A1     2.598400    42A1     2.693474    20B2     2.775005  
      20B1     2.775005    43A1     2.777034    10A2     2.777038  
      21B2     2.800113    21B1     2.800113    44A1     2.881656  
      22B2     2.946018    22B1     2.946018    45A1     3.049844  
      46A1     3.114906    23B2     3.154642    23B1     3.154642  
      47A1     3.184433    24B1     3.406334    24B2     3.406334  
      48A1     3.464465    11A2     3.758974    49A1     3.758983  
      50A1     4.276442    25B1     4.462096    25B2     4.462096  
      12A2     4.569258    51A1     4.569260    26B2     4.795843  
      26B1     4.795843    27B1     4.954703    27B2     4.954703  
      28B1     4.958564    28B2     4.958564    52A1     5.014111  
      53A1     5.306584    13A2     5.493997    54A1     5.494069  
      55A1     6.073988    29B2     6.443855    29B1     6.443855  
      30B1     6.502801    30B2     6.502801    56A1     6.808328  
      57A1     6.921487    14A2     6.921496    15A2     7.018713  
      58A1     7.018715    31B1     7.206968    31B2     7.206968  
      32B1     7.359412    32B2     7.359412    59A1     7.798681  
      33B1     8.294073    33B2     8.294073    60A1     8.441973  
      34B1     9.266214    34B2     9.266214    61A1     9.569004  
      16A2     9.569005    62A1     9.671257    63A1     9.978991  
      35B1    10.024228    35B2    10.024228    64A1    11.478324  
      65A1    12.900003    36B2    13.304990    36B1    13.304990  
      66A1    13.451420    67A1    14.562146    68A1    19.695605  
      69A1    33.694454    70A1    67.570650    71A1    93.977758  
      72A1   127.217434  

    Beta Occupied:                                                        

       1A1  -117.244452     2A1   -11.868615     3A1    -9.229407  
       1B2    -9.229402     1B1    -9.229402     4A1    -1.163001  
       5A1    -0.531640     2B1    -0.531559     2B2    -0.531559  

    Beta Virtual:                                                         

       6A1     0.033877     7A1     0.063562     3B2     0.087975  
       3B1     0.087975     8A1     0.105080     4B2     0.119447  
       4B1     0.119447     9A1     0.155878    10A1     0.160243  
       5B1     0.223687     5B2     0.223687    11A1     0.254463  
      12A1     0.272643     1A2     0.272646    13A1     0.296915  
      14A1     0.301155     2A2     0.301165     6B2     0.329152  
       6B1     0.329152     7B2     0.335898     7B1     0.335898  
      15A1     0.346151    16A1     0.393588    17A1     0.420644  
      18A1     0.460318     8B2     0.498415     8B1     0.498415  
       3A2     0.510397    19A1     0.510403     9B2     0.594385  
       9B1     0.594385    20A1     0.608436    21A1     0.625288  
      10B1     0.638730    10B2     0.638730    22A1     0.660934  
       4A2     0.660945    23A1     0.732791    11B1     0.740479  
      11B2     0.740479    12B1     0.794871    12B2     0.794871  
      24A1     0.801961     5A2     0.801962    25A1     0.803383  
      26A1     0.844767    13B1     0.866360    13B2     0.866360  
      27A1     0.943843    28A1     1.043946    29A1     1.164422  
       6A2     1.275008    30A1     1.275008    14B1     1.285245  
      14B2     1.285245    31A1     1.319751    32A1     1.434257  
      33A1     1.546578    15B1     1.597494    15B2     1.597494  
      34A1     1.689997    16B1     1.782129    16B2     1.782129  
      35A1     1.861077    36A1     1.916536     7A2     1.916550  
      17B1     2.093136    17B2     2.093136    18B1     2.297125  
      18B2     2.297125    37A1     2.311043    38A1     2.381110  
      39A1     2.429940     8A2     2.429949    19B1     2.471556  
      19B2     2.471556    40A1     2.519621     9A2     2.519621  
      41A1     2.598400    42A1     2.693474    20B2     2.775005  
      20B1     2.775005    43A1     2.777034    10A2     2.777038  
      21B2     2.800113    21B1     2.800113    44A1     2.881656  
      22B2     2.946018    22B1     2.946018    45A1     3.049844  
      46A1     3.114906    23B2     3.154642    23B1     3.154642  
      47A1     3.184433    24B1     3.406334    24B2     3.406334  
      48A1     3.464465    11A2     3.758974    49A1     3.758983  
      50A1     4.276442    25B1     4.462096    25B2     4.462096  
      12A2     4.569258    51A1     4.569260    26B2     4.795843  
      26B1     4.795843    27B1     4.954703    27B2     4.954703  
      28B1     4.958564    28B2     4.958564    52A1     5.014111  
      53A1     5.306584    13A2     5.493997    54A1     5.494069  
      55A1     6.073988    29B2     6.443855    29B1     6.443855  
      30B1     6.502801    30B2     6.502801    56A1     6.808328  
      57A1     6.921487    14A2     6.921496    15A2     7.018713  
      58A1     7.018715    31B1     7.206968    31B2     7.206968  
      32B1     7.359412    32B2     7.359412    59A1     7.798681  
      33B1     8.294073    33B2     8.294073    60A1     8.441973  
      34B1     9.266214    34B2     9.266214    61A1     9.569004  
      16A2     9.569005    62A1     9.671257    63A1     9.978991  
      35B1    10.024228    35B2    10.024228    64A1    11.478324  
      65A1    12.900003    36B2    13.304990    36B1    13.304990  
      66A1    13.451420    67A1    14.562146    68A1    19.695605  
      69A1    33.694454    70A1    67.570650    71A1    93.977758  
      72A1   127.217434  

    Final Occupation by Irrep:
             A1    A2    B1    B2 
    DOCC [     5,    0,    2,    2 ]
    SOCC [     0,    0,    0,    0 ]

  Energy converged.

  @DF-UKS Final Energy:  -527.09828052334035

   => Energetics <=

    Nuclear Repulsion Energy =              0.0000000000000000
    One-Electron Energy =                -728.2451214112384150
    Two-Electron Energy =                 210.7974642675103780
    DFT Exchange-Correlation Energy =      -9.6506233796122753
    Empirical Dispersion Energy =           0.0000000000000000
    VV10 Nonlocal Energy =                  0.0000000000000000
    Total Energy =                       -527.0982805233403496


  UHF NO Occupations:
  HONO-2 :    2 B1 2.0000000
  HONO-1 :    2 B2 2.0000000
  HONO-0 :    5 A1 2.0000000
  LUNO+0 :    6 A1 0.0000000
  LUNO+1 :    7 A1 0.0000000
  LUNO+2 :    8 A1 0.0000000
  LUNO+3 :    9 A1 0.0000000



Properties will be evaluated at   0.000000,   0.000000,   0.000000 [a0]

Properties computed using the SCF density matrix

  Nuclear Dipole Moment: [e a0]
     X:     0.0000      Y:     0.0000      Z:  -137.3154

  Electronic Dipole Moment: [e a0]
     X:     0.0000      Y:     0.0000      Z:   137.3152

  Dipole Moment: [e a0]
     X:     0.0000      Y:     0.0000      Z:    -0.0002     Total:     0.0002

  Dipole Moment: [D]
     X:     0.0000      Y:     0.0000      Z:    -0.0005     Total:     0.0005


*** tstop() called on linux-en55 at Wed Jan  9 03:37:47 2019
Module time:
	user time   =       6.49 seconds =       0.11 minutes
	system time =       0.04 seconds =       0.00 minutes
	total time  =          6 seconds =       0.10 minutes
Total time:
	user time   =      18.08 seconds =       0.30 minutes
	system time =       0.12 seconds =       0.00 minutes
	total time  =         18 seconds =       0.30 minutes

*** tstart() called on linux-en55
*** at Wed Jan  9 03:37:47 2019

   => Loading Basis Set <=

    Name: (DEF2-TZVPD AUX)
    Role: RIFIT
    Keyword: DF_BASIS_MP2
    atoms 1 entry AR         line   966 file /home/yuant/psi4conda/share/psi4/basis/def2-tzvpd-ri.gbs 
    atoms 2 entry C          line   211 file /home/yuant/psi4conda/share/psi4/basis/def2-tzvpd-ri.gbs 
    atoms 3 entry N          line   266 file /home/yuant/psi4conda/share/psi4/basis/def2-tzvpd-ri.gbs 
    atoms 4 entry O          line   321 file /home/yuant/psi4conda/share/psi4/basis/def2-tzvpd-ri.gbs 

	 --------------------------------------------------------
	                          DF-MP2                         
	      2nd-Order Density-Fitted Moller-Plesset Theory     
	              UMP2 Wavefunction,   1 Threads             
	                                                         
	        Rob Parrish, Justin Turney, Andy Simmonett,      
	           Ed Hohenstein, and C. David Sherrill          
	 --------------------------------------------------------

	 --------------------------------------------------------
	                 NBF =   160, NAUX =   405
	 --------------------------------------------------------
	   CLASS    FOCC     OCC    AOCC    AVIR     VIR    FVIR
	   ALPHA       0       9       9     151     151       0
	    BETA       0       9       9     151     151       0
	 --------------------------------------------------------

	-----------------------------------------------------------
	 ==================> DF-MP2 Energies <==================== 
	-----------------------------------------------------------
	 Reference Energy          =    -527.0982805233403496 [Eh]
	 Singles Energy            =      -0.0000000000065163 [Eh]
	 Same-Spin Energy          =      -0.0907401965427176 [Eh]
	 Opposite-Spin Energy      =      -0.2436515575307036 [Eh]
	 Correlation Energy        =      -0.3343917540799375 [Eh]
	 Total Energy              =    -527.4326722774202381 [Eh]
	-----------------------------------------------------------
	 ================> DF-SCS-MP2 Energies <================== 
	-----------------------------------------------------------
	 SCS Same-Spin Scale       =       0.2200000000000000 [-]
	 SCS Opposite-Spin Scale   =       0.5200000000000000 [-]
	 SCS Same-Spin Energy      =      -0.0199628432393979 [Eh]
	 SCS Opposite-Spin Energy  =      -0.1266988099159659 [Eh]
	 SCS Correlation Energy    =      -0.1466616531618801 [Eh]
	 SCS Total Energy          =    -527.2449421765022635 [Eh]
	-----------------------------------------------------------



    DSD-PBEP86-D3BJ Energy Summary
    -------------------------
    DFT Reference Energy                  =  -527.0982805233403496
    Scaled MP2 Correlation                =    -0.1466616531618801
    @Final double-hybrid DFT total energy =  -527.2449421765022635


*** tstop() called on linux-en55 at Wed Jan  9 03:37:48 2019
Module time:
	user time   =       0.54 seconds =       0.01 minutes
	system time =       0.02 seconds =       0.00 minutes
	total time  =          1 seconds =       0.02 minutes
Total time:
	user time   =      18.62 seconds =       0.31 minutes
	system time =       0.14 seconds =       0.00 minutes
	total time  =         19 seconds =       0.32 minutes

       N-Body: Complex Energy (fragments = (1,), basis = (1, 2):  -527.24494217650226)

   ==> N-Body: Now computing 2-body complexes <==


       N-Body: Computing complex (1/1) with fragments (1, 2) in the basis of fragments (1, 2).


*** tstart() called on linux-en55
*** at Wed Jan  9 03:37:48 2019


  //>>>>>>>>>>>>>>>>>>>>>>>>>>>>>>>>>>>//
  //     Guess SCF, DEF2-SVP Basis     //
  //<<<<<<<<<<<<<<<<<<<<<<<<<<<<<<<<<<<//

   => Loading Basis Set <=

    Name: DEF2-SVP
    Role: ORBITAL
    Keyword: BASIS
    atoms 1 entry AR         line   384 file /home/yuant/psi4conda/share/psi4/basis/def2-svp.gbs 
    atoms 2 entry C          line    90 file /home/yuant/psi4conda/share/psi4/basis/def2-svp.gbs 
    atoms 3 entry N          line   110 file /home/yuant/psi4conda/share/psi4/basis/def2-svp.gbs 
    atoms 4 entry O          line   130 file /home/yuant/psi4conda/share/psi4/basis/def2-svp.gbs 


         ---------------------------------------------------------
                           SCF Castup computation                  
         ---------------------------------------------------------
                                   SCF
            by Justin Turney, Rob Parrish, Andy Simmonett
                             and Daniel Smith
                              UKS Reference
                        1 Threads,    500 MiB Core
         ---------------------------------------------------------

  ==> Geometry <==

    Molecular point group: c2v
    Full point group: C_inf_v

    Geometry (in Angstrom), charge = 0, multiplicity = 2:

       Center              X                  Y                   Z               Mass       
    ------------   -----------------  -----------------  -----------------  -----------------
         AR           0.000000000000     0.000000000000    -4.036898000000    39.962383122510
         C            0.000000000000     0.000000000000     0.000000000000    12.000000000000
         N            0.000000000000     0.000000000000     1.231991000000    14.003074004780
         O            0.000000000000     0.000000000000    -1.175455000000    15.994914619560

  Running in c2v symmetry.

  Rotational constants: A = ************  B =      0.02427  C =      0.02427 [cm^-1]
  Rotational constants: A = ************  B =    727.57989  C =    727.57989 [MHz]
  Nuclear repulsion =  105.400992004437370

  Charge       = 0
  Multiplicity = 2
  Electrons    = 39
  Nalpha       = 20
  Nbeta        = 19

  ==> Algorithm <==

  SCF Algorithm Type is DF.
  DIIS enabled.
  MOM disabled.
  Fractional occupation disabled.
  Guess Type is SAD.
  Energy threshold   = 1.00e-06
  Density threshold  = 1.00e-06
  Integral threshold = 0.00e+00

  ==> Primary Basis <==

  Basis Set: DEF2-SVP
    Blend: DEF2-SVP
    Number of shells: 26
    Number of basis function: 60
    Number of Cartesian functions: 64
    Spherical Harmonics?: true
    Max angular momentum: 2

  ==> DFT Potential <==

   => Composite Functional: DSD-PBEP86-D3BJ <= 

    DSD-PBEP86-D3BJ Dispersion-corrected SCS Double Hybrid XC Functional

    S. Kozuch, J.M.L. Martin, J. Comp. Chem., 34, 2327-2344, 2013


    Deriv               =              1
    GGA                 =           TRUE
    Meta                =          FALSE

    Exchange Hybrid     =           TRUE
    MP2 Hybrid          =           TRUE

   => Exchange Functionals <=

    0.3100     XC_GGA_X_PBE

   => Exact (HF) Exchange <=

    0.6900               HF 

   => Correlation Functionals <=

    0.4400     XC_GGA_C_P86

   => MP2 Correlation <=

    MP2 SCS Hybrid      =           TRUE
    MP2 OS Alpha        =       0.520000
    MP2 SS Alpha        =       0.220000

   => Molecular Quadrature <=

    Radial Scheme       =       TREUTLER
    Pruning Scheme      =           FLAT
    Nuclear Scheme      =       TREUTLER

    BS radius alpha     =              1
    Pruning alpha       =              1
    Radial Points       =             75
    Spherical Points    =            302
    Total Points        =          86150
    Total Blocks        =            712
    Max Points          =            255
    Max Functions       =             58

   => -D3BJ: Empirical Dispersion <=

    Grimme's -D3 (BJ-damping) Dispersion Correction
    Grimme S.; Ehrlich S.; Goerigk L. (2011), J. Comput. Chem., 32: 1456
    Parametrisation from: 
    S. Kozuch, J.M.L. Martin, J. Comp. Chem., 34, 2327-2344, 2013


        S6 =   4.800000E-01
        S8 =   0.000000E+00
        A1 =   0.000000E+00
        A2 =   5.600000E+00

   => Loading Basis Set <=

    Name: (DEF2-SVP AUX)
    Role: JKFIT
    Keyword: DF_BASIS_SCF
    atoms 1 entry AR         line  1074 file /home/yuant/psi4conda/share/psi4/basis/def2-svp-jkfit.gbs 
    atoms 2 entry C          line   203 file /home/yuant/psi4conda/share/psi4/basis/def2-svp-jkfit.gbs 
    atoms 3 entry N          line   263 file /home/yuant/psi4conda/share/psi4/basis/def2-svp-jkfit.gbs 
    atoms 4 entry O          line   323 file /home/yuant/psi4conda/share/psi4/basis/def2-svp-jkfit.gbs 

  ==> Pre-Iterations <==

   -------------------------------------------------------
    Irrep   Nso     Nmo     Nalpha   Nbeta   Ndocc  Nsocc
   -------------------------------------------------------
     A1        30      30       0       0       0       0
     A2         4       4       0       0       0       0
     B1        13      13       0       0       0       0
     B2        13      13       0       0       0       0
   -------------------------------------------------------
    Total      60      60      20      19      19       1
   -------------------------------------------------------

  ==> Integral Setup <==

  ==> DiskDFJK: Density-Fitted J/K Matrices <==

    J tasked:                  Yes
    K tasked:                  Yes
    wK tasked:                  No
    OpenMP threads:              1
    Integrals threads:           1
    Memory (MB):               375
    Algorithm:                Core
    Integral Cache:           NONE
    Schwarz Cutoff:          1E-12
    Fitting Condition:       1E-12

   => Auxiliary Basis Set <=

  Basis Set: (DEF2-SVP AUX)
    Blend: DEF2-SVP-JKFIT
    Number of shells: 113
    Number of basis function: 357
    Number of Cartesian functions: 430
    Spherical Harmonics?: true
    Max angular momentum: 4

  Minimum eigenvalue in the overlap matrix is 3.6476207012E-03.
  Using Symmetric Orthogonalization.

  SCF Guess: Superposition of Atomic Densities via on-the-fly atomic UHF.

  ==> Iterations <==

                           Total Energy        Delta E     RMS |[F,P]|

   @DF-UKS iter   0:  -694.39700775488882   -6.94397e+02   7.09964e-02 
   @DF-UKS iter   1:  -694.18682429274486    2.10183e-01   8.46206e-03 
   @DF-UKS iter   2:  -694.21158411545434   -2.47598e-02   6.76216e-03 DIIS
   @DF-UKS iter   3:  -694.23708361874742   -2.54995e-02   1.29694e-03 DIIS
   @DF-UKS iter   4:  -694.23941216321271   -2.32854e-03   5.40447e-04 DIIS
   @DF-UKS iter   5:  -694.23977510274779   -3.62940e-04   3.74117e-04 DIIS
   @DF-UKS iter   6:  -694.23992843888857   -1.53336e-04   1.28974e-04 DIIS
   @DF-UKS iter   7:  -694.23997117922011   -4.27403e-05   6.39314e-05 DIIS
   @DF-UKS iter   8:  -694.23998970452203   -1.85253e-05   3.17357e-05 DIIS
   @DF-UKS iter   9:  -694.23999586153161   -6.15701e-06   1.35724e-05 DIIS
   @DF-UKS iter  10:  -694.23999694777956   -1.08625e-06   4.15894e-06 DIIS
   @DF-UKS iter  11:  -694.23999702690071   -7.91212e-08   1.43551e-06 DIIS
   @DF-UKS iter  12:  -694.23999703337370   -6.47299e-09   4.72023e-07 DIIS

  ==> Post-Iterations <==

   @Spin Contamination Metric:   4.957720480E-02
   @S^2 Expected:                7.500000000E-01
   @S^2 Observed:                7.995772048E-01
   @S   Expected:                5.000000000E-01
   @S   Observed:                5.000000000E-01

    Orbital Energies [Eh]
    ---------------------

    Alpha Occupied:                                                       

       1A1  -117.184252     2A1   -20.134049     3A1   -15.168623  
       4A1   -11.843970     5A1   -11.001419     1B1    -9.212150  
       1B2    -9.212139     6A1    -9.212082     7A1    -1.382002  
       8A1    -1.159764     9A1    -1.139339    10A1    -0.713850  
       2B1    -0.651779     2B2    -0.624929    11A1    -0.564157  
       3B1    -0.511807     3B2    -0.511567    12A1    -0.507545  
       4B1    -0.482934     4B2    -0.432718  

    Alpha Virtual:                                                        

       5B1     0.117812     5B2     0.138910    13A1     0.167123  
      14A1     0.439615     6B1     0.544987     6B2     0.550918  
      15A1     0.578933    16A1     0.655864    17A1     0.767774  
      18A1     0.872245     7B1     0.882073     7B2     0.914669  
       8B1     0.971449     8B2     0.971945     1A2     0.972619  
      19A1     0.972621    20A1     0.999982    21A1     1.096510  
       9B1     1.136755     9B2     1.154521    22A1     1.213000  
      10B1     1.229810    10B2     1.234847    23A1     1.430024  
      11B1     1.652172    11B2     1.673817    24A1     1.677520  
       2A2     1.677528    25A1     1.687931     3A2     2.323582  
      26A1     2.323730    12B1     2.664663    12B2     2.697277  
      27A1     2.778403     4A2     2.779107    28A1     2.845416  
      29A1     3.467248    13B1     3.536445    13B2     3.560770  
      30A1     3.983377  

    Beta Occupied:                                                        

       1A1  -117.184255     2A1   -20.118431     3A1   -15.147283  
       4A1   -11.843974     5A1   -11.007542     1B1    -9.212145  
       1B2    -9.212142     6A1    -9.212097     7A1    -1.351178  
       8A1    -1.139391     9A1    -1.090994    10A1    -0.694655  
       2B2    -0.619907     2B1    -0.555284    11A1    -0.529395  
       3B2    -0.511561     3B1    -0.511517    12A1    -0.506752  
       4B2    -0.403788  

    Beta Virtual:                                                         

       4B1    -0.098839     5B2     0.142255    13A1     0.169963  
       5B1     0.207352    14A1     0.447353     6B1     0.536451  
       6B2     0.543638    15A1     0.582627    16A1     0.657938  
      17A1     0.782813    18A1     0.876798     7B2     0.931446  
       7B1     0.966138     8B2     0.972210     1A2     0.972626  
      19A1     0.972629     8B1     0.975822    20A1     1.005338  
      21A1     1.106868     9B2     1.160103     9B1     1.177086  
      22A1     1.228778    10B2     1.236936    10B1     1.246907  
      23A1     1.433697     2A2     1.670846    24A1     1.671046  
      11B2     1.674784    11B1     1.687028    25A1     1.701762  
       3A2     2.393788    26A1     2.396988    12B2     2.706912  
      12B1     2.716758     4A2     2.819263    27A1     2.819582  
      28A1     2.862793    29A1     3.482783    13B2     3.564658  
      13B1     3.567757    30A1     3.993240  

    Final Occupation by Irrep:
             A1    A2    B1    B2 
    DOCC [    12,    0,    3,    4 ]
    SOCC [     0,    0,    1,    0 ]

  Energy converged.

  @DF-UKS Final Energy:  -694.23999703337370

   => Energetics <=

    Nuclear Repulsion Energy =            105.4009920044373700
    One-Electron Energy =               -1165.2848052377648855
    Two-Electron Energy =                 381.8025758493704416
    DFT Exchange-Correlation Energy =     -16.1575164094167469
    Empirical Dispersion Energy =          -0.0012432400000000
    VV10 Nonlocal Energy =                  0.0000000000000000
    Total Energy =                       -694.2399970333739248


  UHF NO Occupations:
  HONO-2 :    4 B2 1.9979502
  HONO-1 :    3 B1 1.9783627
  HONO-0 :    4 B1 1.0000000
  LUNO+0 :    5 B1 0.0216373
  LUNO+1 :    5 B2 0.0020498
  LUNO+2 :   13 A1 0.0008825
  LUNO+3 :   14 A1 0.0002671


  //>>>>>>>>>>>>>>>>>>>>>>>>>>>>>>>>>>>//
  //          DSD-PBEP86-D3BJ          //
  //<<<<<<<<<<<<<<<<<<<<<<<<<<<<<<<<<<<//

   => Loading Basis Set <=

    Name: DEF2-TZVPD
    Role: ORBITAL
    Keyword: BASIS
    atoms 1 entry AR         line   641 file /home/yuant/psi4conda/share/psi4/basis/def2-tzvpd.gbs 
    atoms 2 entry C          line   134 file /home/yuant/psi4conda/share/psi4/basis/def2-tzvpd.gbs 
    atoms 3 entry N          line   171 file /home/yuant/psi4conda/share/psi4/basis/def2-tzvpd.gbs 
    atoms 4 entry O          line   208 file /home/yuant/psi4conda/share/psi4/basis/def2-tzvpd.gbs 


         ---------------------------------------------------------
                                   SCF
            by Justin Turney, Rob Parrish, Andy Simmonett
                             and Daniel Smith
                              UKS Reference
                        1 Threads,    500 MiB Core
         ---------------------------------------------------------

  ==> Geometry <==

    Molecular point group: c2v
    Full point group: C_inf_v

    Geometry (in Angstrom), charge = 0, multiplicity = 2:

       Center              X                  Y                   Z               Mass       
    ------------   -----------------  -----------------  -----------------  -----------------
         AR           0.000000000000     0.000000000000    -4.036898000000    39.962383122510
         C            0.000000000000     0.000000000000     0.000000000000    12.000000000000
         N            0.000000000000     0.000000000000     1.231991000000    14.003074004780
         O            0.000000000000     0.000000000000    -1.175455000000    15.994914619560

  Running in c2v symmetry.

  Rotational constants: A = ************  B =      0.02427  C =      0.02427 [cm^-1]
  Rotational constants: A = ************  B =    727.57989  C =    727.57989 [MHz]
  Nuclear repulsion =  105.400992004437370

  Charge       = 0
  Multiplicity = 2
  Electrons    = 39
  Nalpha       = 20
  Nbeta        = 19

  ==> Algorithm <==

  SCF Algorithm Type is DF.
  DIIS enabled.
  MOM disabled.
  Fractional occupation disabled.
  Guess Type is READ.
  Energy threshold   = 1.00e-06
  Density threshold  = 1.00e-06
  Integral threshold = 0.00e+00

  ==> Primary Basis <==

  Basis Set: DEF2-TZVPD
    Blend: DEF2-TZVPD
    Number of shells: 56
    Number of basis function: 160
    Number of Cartesian functions: 184
    Spherical Harmonics?: true
    Max angular momentum: 3

  ==> DFT Potential <==

   => Composite Functional: DSD-PBEP86-D3BJ <= 

    DSD-PBEP86-D3BJ Dispersion-corrected SCS Double Hybrid XC Functional

    S. Kozuch, J.M.L. Martin, J. Comp. Chem., 34, 2327-2344, 2013


    Deriv               =              1
    GGA                 =           TRUE
    Meta                =          FALSE

    Exchange Hybrid     =           TRUE
    MP2 Hybrid          =           TRUE

   => Exchange Functionals <=

    0.3100     XC_GGA_X_PBE

   => Exact (HF) Exchange <=

    0.6900               HF 

   => Correlation Functionals <=

    0.4400     XC_GGA_C_P86

   => MP2 Correlation <=

    MP2 SCS Hybrid      =           TRUE
[...]
    Full point group: C_inf_v

    Geometry (in Angstrom), charge = 0, multiplicity = 2:

       Center              X                  Y                   Z               Mass       
    ------------   -----------------  -----------------  -----------------  -----------------
         AR           0.000000000000     0.000000000000    -7.036898000000    39.962383122510
         C            0.000000000000     0.000000000000     0.000000000000    12.000000000000
         N            0.000000000000     0.000000000000     1.231991000000    14.003074004780
         O            0.000000000000     0.000000000000    -1.175455000000    15.994914619560

  Running in c2v symmetry.

  Rotational constants: A = ************  B =      0.00834  C =      0.00834 [cm^-1]
  Rotational constants: A = ************  B =    249.91438  C =    249.91438 [MHz]
  Nuclear repulsion =   81.144252622991090

  Charge       = 0
  Multiplicity = 2
  Electrons    = 39
  Nalpha       = 20
  Nbeta        = 19

  ==> Algorithm <==

  SCF Algorithm Type is DF.
  DIIS enabled.
  MOM disabled.
  Fractional occupation disabled.
  Guess Type is READ.
  Energy threshold   = 1.00e-06
  Density threshold  = 1.00e-06
  Integral threshold = 0.00e+00

  ==> Primary Basis <==

  Basis Set: DEF2-TZVPD
    Blend: DEF2-TZVPD
    Number of shells: 56
    Number of basis function: 160
    Number of Cartesian functions: 184
    Spherical Harmonics?: true
    Max angular momentum: 3

  ==> DFT Potential <==

   => Composite Functional: DSD-PBEP86-D3BJ <= 

    DSD-PBEP86-D3BJ Dispersion-corrected SCS Double Hybrid XC Functional

    S. Kozuch, J.M.L. Martin, J. Comp. Chem., 34, 2327-2344, 2013


    Deriv               =              1
    GGA                 =           TRUE
    Meta                =          FALSE

    Exchange Hybrid     =           TRUE
    MP2 Hybrid          =           TRUE

   => Exchange Functionals <=

    0.3100     XC_GGA_X_PBE

   => Exact (HF) Exchange <=

    0.6900               HF 

   => Correlation Functionals <=

    0.4400     XC_GGA_C_P86

   => MP2 Correlation <=

    MP2 SCS Hybrid      =           TRUE
    MP2 OS Alpha        =       0.520000
    MP2 SS Alpha        =       0.220000

   => Molecular Quadrature <=

    Radial Scheme       =       TREUTLER
    Pruning Scheme      =           FLAT
    Nuclear Scheme      =       TREUTLER

    BS radius alpha     =              1
    Pruning alpha       =              1
    Radial Points       =             75
    Spherical Points    =            302
    Total Points        =          90399
    Total Blocks        =            816
    Max Points          =            256
    Max Functions       =            131

   => -D3BJ: Empirical Dispersion <=

    Grimme's -D3 (BJ-damping) Dispersion Correction
    Grimme S.; Ehrlich S.; Goerigk L. (2011), J. Comput. Chem., 32: 1456
    Parametrisation from: 
    S. Kozuch, J.M.L. Martin, J. Comp. Chem., 34, 2327-2344, 2013


        S6 =   4.800000E-01
        S8 =   0.000000E+00
        A1 =   0.000000E+00
        A2 =   5.600000E+00

   => Loading Basis Set <=

    Name: (DEF2-TZVPD AUX)
    Role: JKFIT
    Keyword: DF_BASIS_SCF
    atoms 1 entry AR         line  1074 file /home/yuant/psi4conda/share/psi4/basis/def2-tzvp-jkfit.gbs 
    atoms 2 entry C          line   203 file /home/yuant/psi4conda/share/psi4/basis/def2-tzvp-jkfit.gbs 
    atoms 3 entry N          line   263 file /home/yuant/psi4conda/share/psi4/basis/def2-tzvp-jkfit.gbs 
    atoms 4 entry O          line   323 file /home/yuant/psi4conda/share/psi4/basis/def2-tzvp-jkfit.gbs 

  Reading orbitals from file 180, no projection.


  Computing basis projection from DEF2-SVP to DEF2-TZVPD

  ==> Pre-Iterations <==

   -------------------------------------------------------
    Irrep   Nso     Nmo     Nalpha   Nbeta   Ndocc  Nsocc
   -------------------------------------------------------
     A1        72      72       0       0       0       0
     A2        16      16       0       0       0       0
     B1        36      36       0       0       0       0
     B2        36      36       0       0       0       0
   -------------------------------------------------------
    Total     160     160      20      19      19       1
   -------------------------------------------------------

  ==> Integral Setup <==

  ==> MemDFJK: Density-Fitted J/K Matrices <==

    J tasked:                   Yes
    K tasked:                   Yes
    wK tasked:                   No
    OpenMP threads:               1
    Memory (MB):                375
    Algorithm:                 Core
    Schwarz Cutoff:           1E-12
    Mask sparsity (%):      22.9609
    Fitting Condition:        1E-12

   => Auxiliary Basis Set <=

  Basis Set: (DEF2-TZVPD AUX)
    Blend: DEF2-TZVP-JKFIT
    Number of shells: 113
    Number of basis function: 357
    Number of Cartesian functions: 430
    Spherical Harmonics?: true
    Max angular momentum: 4

  Minimum eigenvalue in the overlap matrix is 8.5625750683E-05.
  Using Symmetric Orthogonalization.

  SCF Guess: Orbitals guess was supplied from a previous computation.

  ==> Iterations <==

                           Total Energy        Delta E     RMS |[F,P]|

   @DF-UKS iter   0:  -694.49897929909605   -6.94499e+02   2.42311e-02 
   @DF-UKS iter   1:  -694.62326990530710   -1.24291e-01   5.15992e-04 
   @DF-UKS iter   2:  -694.62401263828667   -7.42733e-04   1.33435e-04 DIIS
   @DF-UKS iter   3:  -694.62406307101946   -5.04327e-05   8.40031e-05 DIIS
   @DF-UKS iter   4:  -694.62409002320328   -2.69522e-05   2.24911e-05 DIIS
   @DF-UKS iter   5:  -694.62409410097234   -4.07777e-06   1.22255e-05 DIIS
   @DF-UKS iter   6:  -694.62409677027199   -2.66930e-06   8.42419e-06 DIIS
   @DF-UKS iter   7:  -694.62409868544819   -1.91518e-06   6.83469e-06 DIIS
   @DF-UKS iter   8:  -694.62410010452163   -1.41907e-06   1.58979e-06 DIIS
   @DF-UKS iter   9:  -694.62410015972785   -5.52062e-08   4.75209e-07 DIIS

  ==> Post-Iterations <==

   @Spin Contamination Metric:   4.695952848E-02
   @S^2 Expected:                7.500000000E-01
   @S^2 Observed:                7.969595285E-01
   @S   Expected:                5.000000000E-01
   @S   Observed:                5.000000000E-01

    Orbital Energies [Eh]
    ---------------------

    Alpha Occupied:                                                       

       1A1  -117.244393     2A1   -20.132760     3A1   -15.168385  
       4A1   -11.868691     5A1   -10.993889     1B1    -9.229436  
       1B2    -9.229436     6A1    -9.229435     7A1    -1.395195  
       8A1    -1.171801     9A1    -1.163166    10A1    -0.718606  
       2B1    -0.651142     2B2    -0.624522    11A1    -0.572824  
       3B1    -0.531769     3B2    -0.531766    12A1    -0.531726  
       4B1    -0.486709     4B2    -0.435088  

    Alpha Virtual:                                                        

      13A1     0.030030    14A1     0.079797     5B1     0.083651  
       5B2     0.085347     6B1     0.101882     6B2     0.104240  
      15A1     0.104425     7B1     0.114285     7B2     0.132248  
      16A1     0.139555    17A1     0.171473    18A1     0.183440  
       1A2     0.226402    19A1     0.226536     8B1     0.228054  
       8B2     0.235656    20A1     0.273869     9B1     0.279380  
       2A2     0.279480    21A1     0.279481     9B2     0.279549  
      22A1     0.324914    10B1     0.364847    10B2     0.369172  
      23A1     0.374256    24A1     0.423181     3A2     0.429247  
      25A1     0.429687    11B1     0.489330    11B2     0.497606  
      26A1     0.498219    27A1     0.556700     4A2     0.567700  
      28A1     0.567876    12B1     0.571731    12B2     0.578033  
      13B1     0.631604    13B2     0.631670    29A1     0.645450  
      30A1     0.715052    31A1     0.739981    14B1     0.750087  
      14B2     0.771060     5A2     0.794778    32A1     0.794782  
      15B1     0.795764    15B2     0.795991    33A1     0.817944  
      34A1     0.889605     6A2     0.903691    35A1     0.903857  
      36A1     0.915483    16B1     0.948675    16B2     0.959710  
      37A1     1.106964    38A1     1.162680    17B1     1.188278  
      39A1     1.200192    17B2     1.209373     7A2     1.421695  
      40A1     1.422107    41A1     1.708619    18B1     1.725516  
      18B2     1.733932    19B1     1.748162    19B2     1.768681  
      42A1     1.862421     8A2     1.862494    43A1     1.883141  
      44A1     2.003366    20B1     2.315076    45A1     2.318277  
      20B2     2.337935     9A2     2.427710    46A1     2.427711  
      21B1     2.428488    21B2     2.428506    47A1     2.445897  
      48A1     2.551165    49A1     2.637892    22B1     2.662416  
      22B2     2.696155    23B1     2.738737    23B2     2.738757  
      24B1     2.774738    24B2     2.774739    10A2     2.774748  
      50A1     2.774759    25B1     2.774771    25B2     2.774774  
      51A1     2.775021    26B1     2.925209    26B2     2.925236  
      52A1     2.938222    11A2     2.984173    53A1     2.984247  
      27B1     3.072704    27B2     3.090930    12A2     3.180726  
      54A1     3.180773    28B1     3.285680    28B2     3.310313  
      55A1     3.418866    56A1     3.583614    57A1     3.718334  
      29B1     3.800492    29B2     3.817727    30B2     4.088278  
      30B1     4.088286    58A1     4.519294    13A2     4.520983  
      59A1     4.645707    60A1     4.864761    14A2     4.866603  
      61A1     4.923915    31B1     5.190505    31B2     5.224257  
      32B1     5.319139    32B2     5.319155    33B1     5.546297  
      33B2     5.574894    62A1     5.764878    15A2     5.822519  
      63A1     5.823900    64A1     5.926023    65A1     6.655235  
      16A2     6.655321    34B1     6.799420    34B2     6.820649  
      35B1     7.109308    35B2     7.132406    66A1     7.353424  
      67A1     7.626966    36B1    13.290171    36B2    13.290172  
      68A1    13.299820    69A1    24.374513    70A1    32.974089  
      71A1    33.030321    72A1    45.120346  

    Beta Occupied:                                                        

       1A1  -117.244393     2A1   -20.118056     3A1   -15.147819  
       4A1   -11.868691     5A1   -10.999383     1B1    -9.229436  
       1B2    -9.229436     6A1    -9.229435     7A1    -1.364864  
       8A1    -1.163166     9A1    -1.101132    10A1    -0.700215  
       2B2    -0.619336     2B1    -0.555455    11A1    -0.539449  
       3B1    -0.531769     3B2    -0.531766    12A1    -0.531726  
       4B2    -0.407581  

    Beta Virtual:                                                         

       4B1    -0.103835    13A1     0.031042    14A1     0.080554  
       5B1     0.084187     5B2     0.085188     6B1     0.103448  
       6B2     0.104249    15A1     0.104431     7B2     0.133348  
      16A1     0.141395    17A1     0.172359    18A1     0.184237  
       7B1     0.185365     1A2     0.227255    19A1     0.227566  
       8B2     0.238242     8B1     0.253417    20A1     0.275279  
       2A2     0.279481    21A1     0.279481     9B2     0.279570  
       9B1     0.279789    22A1     0.327529    10B1     0.364828  
      10B2     0.367770    23A1     0.377805    24A1     0.424433  
       3A2     0.436532    25A1     0.436870    11B2     0.497451  
      26A1     0.499333    11B1     0.502453    27A1     0.561844  
       4A2     0.571004    28A1     0.571239    12B2     0.578209  
      12B1     0.581190    13B1     0.631627    13B2     0.631654  
      29A1     0.645459    30A1     0.720011    31A1     0.743585  
      14B2     0.778690    14B1     0.792722     5A2     0.794778  
      32A1     0.794782    15B2     0.796183    15B1     0.798984  
      33A1     0.818448    34A1     0.897649     6A2     0.900981  
      35A1     0.901092    36A1     0.918583    16B2     0.961743  
      16B1     0.968581    37A1     1.122351    38A1     1.164750  
      39A1     1.205955    17B2     1.211338    17B1     1.219099  
       7A2     1.464833    40A1     1.466708    41A1     1.717194  
      18B1     1.719311    18B2     1.727455    19B2     1.772197  
      19B1     1.777581    42A1     1.880696     8A2     1.886120  
      43A1     1.886937    44A1     2.009611    45A1     2.325357  
      20B2     2.343933    20B1     2.352580     9A2     2.427710  
      46A1     2.427711    21B2     2.428510    21B1     2.428513  
      47A1     2.446058    48A1     2.564550    49A1     2.655321  
      22B2     2.709232    22B1     2.724202    23B2     2.730600  
      23B1     2.730617    24B1     2.774738    24B2     2.774739  
      10A2     2.774748    50A1     2.774759    25B1     2.774773  
      25B2     2.774774    51A1     2.775023    26B2     2.925241  
      26B1     2.925243    52A1     2.938222    11A2     2.992633  
      53A1     2.993108    27B2     3.092209    27B1     3.097960  
      12A2     3.167574    54A1     3.167643    28B2     3.314324  
      28B1     3.320594    55A1     3.430138    56A1     3.589213  
      57A1     3.728248    29B1     3.814778    29B2     3.818311  
      30B2     4.134693    30B1     4.135386    13A2     4.551015  
      58A1     4.552617    59A1     4.657983    14A2     4.925291  
      60A1     4.926806    61A1     4.942325    31B2     5.233054  
      31B1     5.235836    32B2     5.342668    32B1     5.342729  
      33B1     5.576464    33B2     5.579747    62A1     5.779984  
      15A2     5.837845    63A1     5.838327    64A1     5.936430  
      16A2     6.691775    65A1     6.692659    34B1     6.821255  
      34B2     6.824054    35B2     7.136734    35B1     7.138069  
      66A1     7.365942    67A1     7.633533    36B1    13.290171  
      36B2    13.290172    68A1    13.299820    69A1    24.371175  
      70A1    32.981185    71A1    33.037613    72A1    45.129439  

    Final Occupation by Irrep:
             A1    A2    B1    B2 
    DOCC [    12,    0,    3,    4 ]
    SOCC [     0,    0,    1,    0 ]

  Energy converged.

  @DF-UKS Final Energy:  -694.62410015972785

   => Energetics <=

    Nuclear Repulsion Energy =             81.1442526229910897
    One-Electron Energy =               -1117.0180187928990563
    Two-Electron Energy =                 357.4103965006067938
    DFT Exchange-Correlation Energy =     -16.1598294404266056
    Empirical Dispersion Energy =          -0.0009010500000000
    VV10 Nonlocal Energy =                  0.0000000000000000
    Total Energy =                       -694.6241001597277318


  UHF NO Occupations:
  HONO-2 :    4 B2 1.9982275
  HONO-1 :    3 B1 1.9799132
  HONO-0 :    4 B1 1.0000000
  LUNO+0 :    5 B1 0.0200868
  LUNO+1 :    5 B2 0.0017725
  LUNO+2 :   13 A1 0.0012287
  LUNO+3 :   14 A1 0.0002820



Properties will be evaluated at   0.000000,   0.000000,   0.000000 [a0]

Properties computed using the SCF density matrix

  Nuclear Dipole Moment: [e a0]
     X:     0.0000      Y:     0.0000      Z:  -240.8340

  Electronic Dipole Moment: [e a0]
     X:     0.0000      Y:     0.0000      Z:   240.5664

  Dipole Moment: [e a0]
     X:     0.0000      Y:     0.0000      Z:    -0.2676     Total:     0.2676

  Dipole Moment: [D]
     X:     0.0000      Y:     0.0000      Z:    -0.6801     Total:     0.6801


*** tstop() called on linux-en55 at Wed Jan  9 03:45:12 2019
Module time:
	user time   =       9.66 seconds =       0.16 minutes
	system time =       0.05 seconds =       0.00 minutes
	total time  =          9 seconds =       0.15 minutes
Total time:
	user time   =     454.88 seconds =       7.58 minutes
	system time =       3.50 seconds =       0.06 minutes
	total time  =        463 seconds =       7.72 minutes

*** tstart() called on linux-en55
*** at Wed Jan  9 03:45:12 2019

   => Loading Basis Set <=

    Name: (DEF2-TZVPD AUX)
    Role: RIFIT
    Keyword: DF_BASIS_MP2
    atoms 1 entry AR         line   966 file /home/yuant/psi4conda/share/psi4/basis/def2-tzvpd-ri.gbs 
    atoms 2 entry C          line   211 file /home/yuant/psi4conda/share/psi4/basis/def2-tzvpd-ri.gbs 
    atoms 3 entry N          line   266 file /home/yuant/psi4conda/share/psi4/basis/def2-tzvpd-ri.gbs 
    atoms 4 entry O          line   321 file /home/yuant/psi4conda/share/psi4/basis/def2-tzvpd-ri.gbs 

	 --------------------------------------------------------
	                          DF-MP2                         
	      2nd-Order Density-Fitted Moller-Plesset Theory     
	              UMP2 Wavefunction,   1 Threads             
	                                                         
	        Rob Parrish, Justin Turney, Andy Simmonett,      
	           Ed Hohenstein, and C. David Sherrill          
	 --------------------------------------------------------

	 --------------------------------------------------------
	                 NBF =   160, NAUX =   405
	 --------------------------------------------------------
	   CLASS    FOCC     OCC    AOCC    AVIR     VIR    FVIR
	   ALPHA       0      20      20     140     140       0
	    BETA       0      19      19     141     141       0
	 --------------------------------------------------------

	-----------------------------------------------------------
	 ==================> DF-MP2 Energies <==================== 
	-----------------------------------------------------------
	 Reference Energy          =    -694.6241001597278455 [Eh]
	 Singles Energy            =      -0.0000000019457910 [Eh]
	 Same-Spin Energy          =      -0.2574224554745467 [Eh]
	 Opposite-Spin Energy      =      -0.7358566289181954 [Eh]
	 Correlation Energy        =      -0.9932790863385331 [Eh]
	 Total Energy              =    -695.6173792460664345 [Eh]
	-----------------------------------------------------------
	 ================> DF-SCS-MP2 Energies <================== 
	-----------------------------------------------------------
	 SCS Same-Spin Scale       =       0.2200000000000000 [-]
	 SCS Opposite-Spin Scale   =       0.5200000000000000 [-]
	 SCS Same-Spin Energy      =      -0.0566329402044003 [Eh]
	 SCS Opposite-Spin Energy  =      -0.3826454470374616 [Eh]
	 SCS Correlation Energy    =      -0.4392783891876529 [Eh]
	 SCS Total Energy          =    -695.0633785489154661 [Eh]
	-----------------------------------------------------------



    DSD-PBEP86-D3BJ Energy Summary
    -------------------------
    DFT Reference Energy                  =  -694.6241001597278455
    Scaled MP2 Correlation                =    -0.4392783891876529
    @Final double-hybrid DFT total energy =  -695.0633785489154661


*** tstop() called on linux-en55 at Wed Jan  9 03:45:13 2019
Module time:
	user time   =       0.82 seconds =       0.01 minutes
	system time =       0.03 seconds =       0.00 minutes
	total time  =          1 seconds =       0.02 minutes
Total time:
	user time   =     455.70 seconds =       7.59 minutes
	system time =       3.54 seconds =       0.06 minutes
	total time  =        464 seconds =       7.73 minutes

       N-Body: Complex Energy (fragments = (1, 2), basis = (1, 2):  -695.06337854891547)

   ==> N-Body: Counterpoise Corrected (CP)  energies <==

   n-Body     Total Energy [Eh]       I.E. [kcal/mol]      Delta [kcal/mol]
        1     -695.063348510068        0.000000000000        0.000000000000
        2     -695.063378548915       -0.018849661898       -0.018849661898

   => Loading Basis Set <=

    Name: DEF2-SVP
    Role: ORBITAL
    Keyword: BASIS
    atoms 1 entry AR         line   384 file /home/yuant/psi4conda/share/psi4/basis/def2-svp.gbs 
    atoms 2 entry C          line    90 file /home/yuant/psi4conda/share/psi4/basis/def2-svp.gbs 
    atoms 3 entry N          line   110 file /home/yuant/psi4conda/share/psi4/basis/def2-svp.gbs 
    atoms 4 entry O          line   130 file /home/yuant/psi4conda/share/psi4/basis/def2-svp.gbs 


    Psi4 stopped on: Wednesday, 09 January 2019 03:45AM
    Psi4 wall time for execution: 0:07:44.43

*** Psi4 exiting successfully. Buy a developer a beer!
