Generated by Psi4
     FORCE                          CCSD                   MAY-CC-PVTZ
Number of atoms                            I                4
Charge                                     I                0
Multiplicity                               I                2
Number of electrons                        I               39
Number of alpha electrons                  I               20
Number of beta electrons                   I               19
Number of basis functions                  I              140
Number of independent functions            I              140
Atomic numbers                             I   N=           4
          18           6           7           8
Nuclear charges                            R   N=           4
  1.80000000e+01  6.00000000e+00  7.00000000e+00  8.00000000e+00
Current cartesian coordinates              R   N=          12
  0.00000000e+00  0.00000000e+00 -9.43143038e+00  0.00000000e+00  0.00000000e+00
  0.00000000e+00  0.00000000e+00  0.00000000e+00  2.32812559e+00  0.00000000e+00
  0.00000000e+00 -2.22128803e+00
Integer atomic weights                     I   N=           4
          39          12          14          15
Real atomic weights                        R   N=           4
  3.99623831e+01  1.20000000e+01  1.40030740e+01  1.59949146e+01
Number of primitive shells                 I              146
Number of contracted shells                I               50
Pure/Cartesian d shells                    I                0
Pure/Cartesian f shells                    I                0
Highest angular momentum                   I                3
Largest degree of contraction              I               13
Shell types                                I   N=          50
           0           0           0           0           0           1
           1           1           1          -2          -2          -3
           0           1           0           0           0           0
           1           1           1          -2          -2          -3
           0           1           0           0           0           0
           1           1           1          -2          -2          -3
           0           1           0           0           0           0
           1           1           1          -2          -2          -3
           0           1
Number of primitives per shell             I   N=          50
          13          13          13           1           1           7
           7           1           1           1           1           1
           1           1           8           8           1           1
           3           1           1           1           1           1
           1           1           8           8           1           1
           3           1           1           1           1           1
           1           1           8           8           1           1
           3           1           1           1           1           1
           1           1
Shell to atom map                          I   N=          50
           1           1           1           1           1           1
           1           1           1           1           1           1
           1           1           2           2           2           2
           2           2           2           2           2           2
           2           2           3           3           3           3
           3           3           3           3           3           3
           3           3           4           4           4           4
           4           4           4           4           4           4
           4           4
Primitive exponents                        R   N=         146
  5.45000000e+05  8.16400000e+04  1.85800000e+04  5.26100000e+03  1.71700000e+03
  6.19900000e+02  2.41600000e+02  9.97900000e+01  4.31500000e+01  1.91400000e+01
  7.48800000e+00  3.20500000e+00  5.20400000e-01  5.45000000e+05  8.16400000e+04
  1.85800000e+04  5.26100000e+03  1.71700000e+03  6.19900000e+02  2.41600000e+02
  9.97900000e+01  4.31500000e+01  1.91400000e+01  7.48800000e+00  3.20500000e+00
  5.20400000e-01  5.45000000e+05  8.16400000e+04  1.85800000e+04  5.26100000e+03
  1.71700000e+03  6.19900000e+02  2.41600000e+02  9.97900000e+01  4.31500000e+01
  1.91400000e+01  7.48800000e+00  3.20500000e+00  5.20400000e-01  1.19600000e+00
  1.95400000e-01  7.61800000e+02  1.80200000e+02  5.75000000e+01  2.12400000e+01
  8.38800000e+00  3.41600000e+00  4.52300000e-01  7.61800000e+02  1.80200000e+02
  5.75000000e+01  2.12400000e+01  8.38800000e+00  3.41600000e+00  4.52300000e-01
  1.20600000e+00  1.54500000e-01  4.10000000e-01  1.25400000e+00  8.90000000e-01
  6.85000000e-02  4.87000000e-02  8.23600000e+03  1.23500000e+03  2.80800000e+02
  7.92700000e+01  2.55900000e+01  8.99700000e+00  3.31900000e+00  3.64300000e-01
  8.23600000e+03  1.23500000e+03  2.80800000e+02  7.92700000e+01  2.55900000e+01
  8.99700000e+00  3.31900000e+00  3.64300000e-01  9.05900000e-01  1.28500000e-01
  1.87100000e+01  4.13300000e+00  1.20000000e+00  3.82700000e-01  1.20900000e-01
  1.09700000e+00  3.18000000e-01  7.61000000e-01  4.40200000e-02  3.56900000e-02
  1.14200000e+04  1.71200000e+03  3.89300000e+02  1.10000000e+02  3.55700000e+01
  1.25400000e+01  4.64400000e+00  5.11800000e-01  1.14200000e+04  1.71200000e+03
  3.89300000e+02  1.10000000e+02  3.55700000e+01  1.25400000e+01  4.64400000e+00
  5.11800000e-01  1.29300000e+00  1.78700000e-01  2.66300000e+01  5.94800000e+00
  1.74200000e+00  5.55000000e-01  1.72500000e-01  1.65400000e+00  4.69000000e-01
  1.09300000e+00  5.76000000e-02  4.91000000e-02  1.53300000e+04  2.29900000e+03
  5.22400000e+02  1.47300000e+02  4.75500000e+01  1.67600000e+01  6.20700000e+00
  6.88200000e-01  1.53300000e+04  2.29900000e+03  5.22400000e+02  1.47300000e+02
  4.75500000e+01  1.67600000e+01  6.20700000e+00  6.88200000e-01  1.75200000e+00
  2.38400000e-01  3.44600000e+01  7.74900000e+00  2.28000000e+00  7.15600000e-01
  2.14000000e-01  2.31400000e+00  6.45000000e-01  1.42800000e+00  7.37600000e-02
  5.97400000e-02
Contraction coefficients                   R   N=         146
  4.55816851e-05  3.54099339e-04  1.85792456e-03  7.76831999e-03  2.74225293e-02
  8.23815850e-02  2.01225078e-01  3.56772274e-01  3.49554450e-01  1.18263107e-01
  5.60176299e-03  4.83461175e-04  2.92017857e-05 -1.38905279e-05 -1.07679442e-04
 -5.67821742e-04 -2.37381982e-03 -8.54381497e-03 -2.63551299e-02 -7.05294555e-02
 -1.47902155e-01 -2.16188771e-01 -4.42642836e-02  5.19676504e-01  6.21047089e-01
 -7.80086241e-03  6.24207639e-06  4.83489267e-05  2.55308769e-04  1.06605275e-03
  3.84999200e-03  1.18844979e-02  3.21689111e-02  6.84279475e-02  1.04842346e-01
  2.17861552e-02 -3.19801029e-01 -6.55118240e-01  1.13073305e+00  1.00000000e+00
  1.00000000e+00  2.43607294e-03  1.95521334e-02  9.05454602e-02  2.63551192e-01
  4.50987440e-01  3.57295015e-01 -5.38541778e-03 -1.14159413e-03 -9.11475682e-03
 -4.37148745e-02 -1.29555965e-01 -2.41477740e-01 -1.59596061e-01  9.62348672e-01
  1.00000000e+00  1.00000000e+00  1.00000000e+00  1.00000000e+00  1.00000000e+00
  1.00000000e+00  1.00000000e+00  5.42430189e-04  4.19642790e-03  2.15409141e-02
  8.36149496e-02  2.39871619e-01  4.43751820e-01  3.53579696e-01 -9.17636608e-03
 -1.96392234e-04 -1.52595027e-03 -7.89044903e-03 -3.15148705e-02 -9.69100083e-02
 -2.20541526e-01 -2.96069113e-01  1.04050343e+00  1.00000000e+00  1.00000000e+00
  3.94263872e-02  2.44088985e-01  8.15492009e-01  1.00000000e+00  1.00000000e+00
  1.00000000e+00  1.00000000e+00  1.00000000e+00  1.00000000e+00  1.00000000e+00
  5.34980914e-04  4.13766310e-03  2.12509149e-02  8.25762988e-02  2.38413273e-01
  4.43431666e-01  3.55431909e-01 -8.70290176e-03 -1.98776985e-04 -1.54700349e-03
 -7.99256330e-03 -3.20255651e-02 -9.91102048e-02 -2.28292775e-01 -2.98182763e-01
  1.03700052e+00  1.00000000e+00  1.00000000e+00  3.98072123e-02  2.49002660e-01
  8.10479727e-01  1.00000000e+00  1.00000000e+00  1.00000000e+00  1.00000000e+00
  1.00000000e+00  1.00000000e+00  1.00000000e+00  5.20198307e-04  4.02334478e-03
  2.07290833e-02  8.10823271e-02  2.36226352e-01  4.43518209e-01  3.58670589e-01
 -8.34979724e-03 -1.97236012e-04 -1.53501070e-03 -7.95118391e-03 -3.21134529e-02
 -1.00269643e-01 -2.34047112e-01 -3.01410928e-01  1.03491965e+00  1.00000000e+00
  1.00000000e+00  4.11634896e-02  2.57762836e-01  8.02419274e-01  1.00000000e+00
  1.00000000e+00  1.00000000e+00  1.00000000e+00  1.00000000e+00  1.00000000e+00
  1.00000000e+00
Coordinates of each shell                  R   N=         150
  0.00000000e+00  0.00000000e+00 -9.43143038e+00  0.00000000e+00  0.00000000e+00
 -9.43143038e+00  0.00000000e+00  0.00000000e+00 -9.43143038e+00  0.00000000e+00
  0.00000000e+00 -9.43143038e+00  0.00000000e+00  0.00000000e+00 -9.43143038e+00
  0.00000000e+00  0.00000000e+00 -9.43143038e+00  0.00000000e+00  0.00000000e+00
 -9.43143038e+00  0.00000000e+00  0.00000000e+00 -9.43143038e+00  0.00000000e+00
  0.00000000e+00 -9.43143038e+00  0.00000000e+00  0.00000000e+00 -9.43143038e+00
  0.00000000e+00  0.00000000e+00 -9.43143038e+00  0.00000000e+00  0.00000000e+00
 -9.43143038e+00  0.00000000e+00  0.00000000e+00 -9.43143038e+00  0.00000000e+00
  0.00000000e+00 -9.43143038e+00  0.00000000e+00  0.00000000e+00  0.00000000e+00
  0.00000000e+00  0.00000000e+00  0.00000000e+00  0.00000000e+00  0.00000000e+00
  0.00000000e+00  0.00000000e+00  0.00000000e+00  0.00000000e+00  0.00000000e+00
  0.00000000e+00  0.00000000e+00  0.00000000e+00  0.00000000e+00  0.00000000e+00
  0.00000000e+00  0.00000000e+00  0.00000000e+00  0.00000000e+00  0.00000000e+00
  0.00000000e+00  0.00000000e+00  0.00000000e+00  0.00000000e+00  0.00000000e+00
  0.00000000e+00  0.00000000e+00  0.00000000e+00  0.00000000e+00  0.00000000e+00
  0.00000000e+00  0.00000000e+00  0.00000000e+00  0.00000000e+00  0.00000000e+00
  2.32812559e+00  0.00000000e+00  0.00000000e+00  2.32812559e+00  0.00000000e+00
  0.00000000e+00  2.32812559e+00  0.00000000e+00  0.00000000e+00  2.32812559e+00
  0.00000000e+00  0.00000000e+00  2.32812559e+00  0.00000000e+00  0.00000000e+00
  2.32812559e+00  0.00000000e+00  0.00000000e+00  2.32812559e+00  0.00000000e+00
  0.00000000e+00  2.32812559e+00  0.00000000e+00  0.00000000e+00  2.32812559e+00
  0.00000000e+00  0.00000000e+00  2.32812559e+00  0.00000000e+00  0.00000000e+00
  2.32812559e+00  0.00000000e+00  0.00000000e+00  2.32812559e+00  0.00000000e+00
  0.00000000e+00 -2.22128803e+00  0.00000000e+00  0.00000000e+00 -2.22128803e+00
  0.00000000e+00  0.00000000e+00 -2.22128803e+00  0.00000000e+00  0.00000000e+00
 -2.22128803e+00  0.00000000e+00  0.00000000e+00 -2.22128803e+00  0.00000000e+00
  0.00000000e+00 -2.22128803e+00  0.00000000e+00  0.00000000e+00 -2.22128803e+00
  0.00000000e+00  0.00000000e+00 -2.22128803e+00  0.00000000e+00  0.00000000e+00
 -2.22128803e+00  0.00000000e+00  0.00000000e+00 -2.22128803e+00  0.00000000e+00
  0.00000000e+00 -2.22128803e+00  0.00000000e+00  0.00000000e+00 -2.22128803e+00
Total Energy                               R     -6.948353697534224e+02
alpha orbital energies                     R   N=         140
 -1.18610862e+02 -2.06976157e+01 -1.56528482e+01 -1.23219535e+01 -1.14130546e+01
 -9.57092990e+00 -9.57092912e+00 -9.57091834e+00 -1.53671173e+00 -1.29209548e+00
 -1.27673592e+00 -8.07031822e-01 -7.28470472e-01 -6.96377986e-01 -6.46883804e-01
 -5.90313655e-01 -5.90283860e-01 -5.90008972e-01 -5.54537389e-01 -4.95160217e-01
  5.26701198e-02  7.18902115e-02  7.48315417e-02  7.89356598e-02  1.25014965e-01
  1.32715804e-01  1.34013987e-01  1.55795386e-01  1.68910940e-01  1.74497296e-01
  2.02151224e-01  2.15778197e-01  2.26027419e-01  2.42352201e-01  2.43429109e-01
  2.49612334e-01  2.77817256e-01  3.14842070e-01  4.63925003e-01  5.64670405e-01
  5.69385108e-01  6.02382512e-01  7.15112757e-01  7.15609712e-01  7.28382697e-01
  7.28597039e-01  7.28597507e-01  7.29657361e-01  7.31774580e-01  7.43292575e-01
  7.50210977e-01  7.50398067e-01  7.66062274e-01  7.87536461e-01  7.87609562e-01
  8.90248847e-01  9.66931677e-01  9.70743289e-01  9.85432217e-01  1.14255063e+00
  1.14265616e+00  1.16734969e+00  1.17119688e+00  1.27207866e+00  1.30070963e+00
  1.30215806e+00  1.76708341e+00  1.78538002e+00  1.78639479e+00  1.82455495e+00
  1.84845573e+00  2.13460207e+00  2.33447997e+00  2.36287687e+00  2.37660822e+00
  2.44010227e+00  2.44992012e+00  2.54686488e+00  2.54686488e+00  2.55479570e+00
  2.55506232e+00  2.59345426e+00  2.63888403e+00  2.80111583e+00  2.85244702e+00
  2.85244834e+00  2.92397753e+00  2.92397754e+00  2.92410462e+00  2.92410468e+00
  2.92462515e+00  2.92464674e+00  2.92601729e+00  3.04205046e+00  3.04209541e+00
  3.08250846e+00  3.08271713e+00  3.08380070e+00  3.13756933e+00  3.15495891e+00
  3.18059622e+00  3.18065848e+00  3.51203637e+00  3.55202993e+00  3.73224794e+00
  3.79873310e+00  3.82208596e+00  3.85484328e+00  4.23886695e+00  4.23889443e+00
  4.39550861e+00  4.42758773e+00  4.64806933e+00  4.64837848e+00  4.88189885e+00
  4.89106751e+00  4.91883051e+00  5.17209769e+00  5.35410913e+00  5.38736681e+00
  5.48848498e+00  5.48851927e+00  5.58175044e+00  5.85085088e+00  5.87835010e+00
  5.97645756e+00  5.97672596e+00  6.06477336e+00  6.14509935e+00  6.70880966e+00
  6.70881734e+00  6.95867944e+00  7.21921322e+00  7.24694528e+00  7.49016453e+00
  7.51170891e+00  7.51505158e+00  7.94688349e+00  1.41143705e+01  1.49275879e+01
alpha MO coefficients (C)                  R   N=       19600
  1.00002529e+00  6.69049370e-06  9.09889657e-06 -1.51054019e-04 -3.74758475e-05
  0.00000000e+00  0.00000000e+00 -2.37437483e-07  0.00000000e+00  0.00000000e+00
  7.56538382e-08  0.00000000e+00  0.00000000e+00  1.03362259e-07  0.00000000e+00
  0.00000000e+00 -4.19340675e-07  2.27025481e-07  0.00000000e+00  0.00000000e+00
  3.04466802e-10  0.00000000e+00 -1.24636083e-07  0.00000000e+00  0.00000000e+00
 -1.26712064e-09  0.00000000e+00  7.60469732e-09  0.00000000e+00  0.00000000e+00
  3.29976534e-10  0.00000000e+00  0.00000000e+00  0.00000000e+00  1.08547475e-05
  0.00000000e+00  0.00000000e+00  2.35248998e-06  3.27143075e-07  6.16978994e-07
  1.31535138e-07 -8.72943413e-06  0.00000000e+00  0.00000000e+00 -6.98836789e-08
  0.00000000e+00  0.00000000e+00  2.31007230e-06  0.00000000e+00  0.00000000e+00
  7.56867561e-06  1.03943921e-07  0.00000000e+00  0.00000000e+00 -7.17051296e-12
  0.00000000e+00 -1.37085542e-06  0.00000000e+00  0.00000000e+00  6.12583612e-12
  0.00000000e+00  1.65056113e-07  0.00000000e+00  0.00000000e+00  2.47163446e-12
  0.00000000e+00  0.00000000e+00  0.00000000e+00 -2.26427495e-06  0.00000000e+00
  0.00000000e+00  3.82778575e-06  2.74491779e-07  5.07331216e-07  7.98529618e-08
 -3.23067724e-06  0.00000000e+00  0.00000000e+00  1.72605297e-08  0.00000000e+00
  0.00000000e+00  4.18229545e-08  0.00000000e+00  0.00000000e+00  2.06780609e-06
  1.37367036e-08  0.00000000e+00  0.00000000e+00 -5.87628634e-12  0.00000000e+00
 -5.08684686e-07  0.00000000e+00  0.00000000e+00 -5.29287498e-12  0.00000000e+00
  1.32825934e-07  0.00000000e+00  0.00000000e+00  9.50840158e-12  0.00000000e+00
  0.00000000e+00  0.00000000e+00 -7.73688483e-06  0.00000000e+00  0.00000000e+00
  6.32887031e-07  9.53754250e-08  1.67249864e-07 -6.30733221e-08  5.84595136e-06
  0.00000000e+00  0.00000000e+00 -5.14741946e-08  0.00000000e+00  0.00000000e+00
  5.39171982e-07  0.00000000e+00  0.00000000e+00  3.08924607e-06 -1.48877188e-08
  0.00000000e+00  0.00000000e+00 -4.21730313e-11  0.00000000e+00  2.97148935e-07
  0.00000000e+00  0.00000000e+00 -6.34762966e-11  0.00000000e+00 -9.10330417e-09
  0.00000000e+00  0.00000000e+00  3.22114623e-11  0.00000000e+00  0.00000000e+00
  0.00000000e+00  1.33231694e-05  0.00000000e+00  0.00000000e+00  5.92247808e-06
 -5.70763789e-06 -3.15811989e-05 -3.60137076e-05  1.32499426e-05  6.20434144e-05
  0.00000000e+00  0.00000000e+00  4.45382473e-07  0.00000000e+00  0.00000000e+00
 -2.16249954e-08  0.00000000e+00  0.00000000e+00 -1.52442996e-06  0.00000000e+00
  0.00000000e+00  9.84891766e-06  2.38878718e-06  0.00000000e+00  0.00000000e+00
  1.16213308e-09  0.00000000e+00 -9.68464231e-07  0.00000000e+00  0.00000000e+00
 -1.01281055e-09  0.00000000e+00  6.48243806e-07  0.00000000e+00  0.00000000e+00
  4.30423263e-10  0.00000000e+00  0.00000000e+00  0.00000000e+00 -5.77275202e-05
  0.00000000e+00  0.00000000e+00 -2.94087911e-05  9.12492338e-04  1.92019834e-03
 -8.37589734e-05  2.41934364e-03  0.00000000e+00  0.00000000e+00 -3.96552854e-04
  0.00000000e+00  0.00000000e+00 -1.52208209e-03  0.00000000e+00  0.00000000e+00
  2.25530589e-03  4.72553795e-04  0.00000000e+00  0.00000000e+00  1.39085626e-06
  0.00000000e+00  1.44033730e-03  0.00000000e+00  0.00000000e+00 -1.42198114e-05
  0.00000000e+00  3.43857066e-05  0.00000000e+00  0.00000000e+00  8.44173947e-06
  0.00000000e+00  0.00000000e+00  0.00000000e+00  1.27336416e-03  0.00000000e+00
  0.00000000e+00 -1.22750570e-04 -2.61392834e-04 -4.93677120e-04  6.90195386e-06
 -2.25086814e-03  0.00000000e+00  0.00000000e+00 -1.78092596e-06  0.00000000e+00
  0.00000000e+00  3.70339811e-04  0.00000000e+00  0.00000000e+00  6.63686090e-04
 -7.76483002e-05  0.00000000e+00  0.00000000e+00 -1.03668096e-06  0.00000000e+00
 -2.93032070e-05  0.00000000e+00  0.00000000e+00  2.03110620e-06  0.00000000e+00
  7.82844353e-05  0.00000000e+00  0.00000000e+00  7.81703307e-07  0.00000000e+00
  0.00000000e+00  0.00000000e+00 -1.78670800e-03  0.00000000e+00  0.00000000e+00
  5.78750600e-04  9.74834878e-01 -1.95473822e-03  4.41982143e-02  2.58219796e-03
  0.00000000e+00  0.00000000e+00  2.15942104e-03  0.00000000e+00  0.00000000e+00
 -2.13605721e-03  0.00000000e+00  0.00000000e+00 -9.93987413e-05  1.24146571e-05
  0.00000000e+00  0.00000000e+00 -2.63343403e-04  0.00000000e+00 -6.47104249e-04
  0.00000000e+00  0.00000000e+00  7.17657017e-05  0.00000000e+00 -1.02380305e-04
  0.00000000e+00  0.00000000e+00  6.07398426e-06  0.00000000e+00  0.00000000e+00
  0.00000000e+00 -3.64331127e-04  0.00000000e+00  0.00000000e+00  5.30547697e-05
 -3.12269741e-06 -1.74487972e-05 -2.02188637e-05  6.35821355e-06  4.67716558e-05
  0.00000000e+00  0.00000000e+00  4.73672021e-06  0.00000000e+00  0.00000000e+00
  8.37206495e-06  0.00000000e+00  0.00000000e+00 -3.37374085e-06  0.00000000e+00
  0.00000000e+00 -1.98427579e-05 -5.27233682e-07  0.00000000e+00  0.00000000e+00
 -2.13388183e-10  0.00000000e+00  2.19107454e-07  0.00000000e+00  0.00000000e+00
  2.80912523e-10  0.00000000e+00  1.11395718e-06  0.00000000e+00  0.00000000e+00
 -1.28081543e-10  0.00000000e+00  0.00000000e+00  0.00000000e+00 -1.09578502e-04
  0.00000000e+00  0.00000000e+00 -4.18301083e-05  9.73778175e-04  1.89297528e-03
  9.75627574e-05  2.07236171e-03  0.00000000e+00  0.00000000e+00  5.24731163e-04
  0.00000000e+00  0.00000000e+00 -7.51355465e-04  0.00000000e+00  0.00000000e+00
 -3.16816746e-03  2.77066684e-04  0.00000000e+00  0.00000000e+00  4.32072802e-06
  0.00000000e+00  1.31997460e-03  0.00000000e+00  0.00000000e+00 -2.00783696e-05
  0.00000000e+00 -7.64834179e-04  0.00000000e+00  0.00000000e+00 -2.33523334e-06
  0.00000000e+00  0.00000000e+00  0.00000000e+00  1.67932598e-03  0.00000000e+00
  0.00000000e+00  2.07247902e-04  9.75722564e-01 -1.67277047e-03  4.32868219e-02
  5.41475081e-03  0.00000000e+00  0.00000000e+00 -2.75635370e-03  0.00000000e+00
  0.00000000e+00  1.64903348e-03  0.00000000e+00  0.00000000e+00 -9.09852942e-04
  8.92361160e-05  0.00000000e+00  0.00000000e+00 -4.14918564e-04  0.00000000e+00
 -3.76429885e-04  0.00000000e+00  0.00000000e+00  9.63134581e-05  0.00000000e+00
  2.52938053e-05  0.00000000e+00  0.00000000e+00  5.96381982e-06  0.00000000e+00
  0.00000000e+00  0.00000000e+00 -1.01164329e-03  0.00000000e+00  0.00000000e+00
  5.27209407e-05 -4.27208934e-04 -8.10485721e-04  4.38283709e-05 -3.12562248e-03
  0.00000000e+00  0.00000000e+00  2.99102072e-05  0.00000000e+00  0.00000000e+00
 -1.01320267e-03  0.00000000e+00  0.00000000e+00 -1.01022199e-03 -8.47736549e-05
  0.00000000e+00  0.00000000e+00 -1.39818915e-06  0.00000000e+00 -3.17175153e-04
  0.00000000e+00  0.00000000e+00  4.42395877e-06  0.00000000e+00 -1.06457623e-04
  0.00000000e+00  0.00000000e+00  8.50947679e-07  0.00000000e+00  0.00000000e+00
  0.00000000e+00 -2.84605467e-03  0.00000000e+00  0.00000000e+00 -8.48811992e-04
 -1.18534145e-04  9.32000272e-01 -7.61234666e-04  8.81851125e-02  3.53291482e-03
  0.00000000e+00  0.00000000e+00 -2.93335343e-05  0.00000000e+00  0.00000000e+00
 -1.66522405e-05  0.00000000e+00  0.00000000e+00  1.36811652e-06  0.00000000e+00
  0.00000000e+00  4.03679128e-05 -1.46435664e-05  0.00000000e+00  0.00000000e+00
  3.13715944e-08  0.00000000e+00  5.04062079e-06  0.00000000e+00  0.00000000e+00
 -1.08611998e-07  0.00000000e+00 -3.83770772e-07  0.00000000e+00  0.00000000e+00
 -2.18785515e-08  0.00000000e+00  0.00000000e+00  0.00000000e+00 -9.13639737e-04
  0.00000000e+00  0.00000000e+00 -1.83513416e-04 -2.42786807e-05 -4.66857759e-05
 -8.95253082e-06  5.84425995e-04  0.00000000e+00  0.00000000e+00  4.50451294e-06
  0.00000000e+00  0.00000000e+00 -1.45877268e-04  0.00000000e+00  0.00000000e+00
 -5.41930526e-04 -6.72591048e-06  0.00000000e+00  0.00000000e+00  1.86995231e-09
  0.00000000e+00  8.51955886e-05  0.00000000e+00  0.00000000e+00 -3.67998579e-09
  0.00000000e+00 -9.19703240e-06  0.00000000e+00  0.00000000e+00 -2.12380791e-09
  0.00000000e+00  0.00000000e+00  0.00000000e+00  1.64688312e-04  0.00000000e+00
  0.00000000e+00 -3.09081661e-04 -1.64156524e-05 -3.12511333e-05 -7.23361283e-06
  2.31671798e-04  0.00000000e+00  0.00000000e+00 -1.22163271e-06  0.00000000e+00
  0.00000000e+00  3.16997750e-07  0.00000000e+00  0.00000000e+00 -1.54062682e-04
 -1.09226591e-06  0.00000000e+00  0.00000000e+00  2.26417147e-09  0.00000000e+00
  3.32592353e-05  0.00000000e+00  0.00000000e+00 -3.02287674e-10  0.00000000e+00
 -8.17516852e-06  0.00000000e+00  0.00000000e+00 -2.03689291e-09  0.00000000e+00
  0.00000000e+00  0.00000000e+00  5.93190444e-04  0.00000000e+00  0.00000000e+00
 -3.95170316e-05 -4.74989261e-06 -8.67268159e-06  3.34793374e-06 -3.80944271e-04
  0.00000000e+00  0.00000000e+00  2.53918638e-06  0.00000000e+00  0.00000000e+00
 -2.97320374e-05  0.00000000e+00  0.00000000e+00 -2.12675870e-04  6.40945877e-07
  0.00000000e+00  0.00000000e+00  3.30395225e-09  0.00000000e+00 -1.72142970e-05
  0.00000000e+00  0.00000000e+00  4.31034652e-09  0.00000000e+00  6.10665428e-07
  0.00000000e+00  0.00000000e+00 -1.67377017e-09  0.00000000e+00  0.00000000e+00
  0.00000000e+00 -9.73605971e-04  0.00000000e+00  0.00000000e+00 -4.26523350e-04
 -7.38593825e-06 -4.14121247e-05 -4.79273340e-05  1.46247623e-05  1.29728625e-04
  0.00000000e+00  0.00000000e+00  1.36664384e-05  0.00000000e+00  0.00000000e+00
  2.52911899e-05  0.00000000e+00  0.00000000e+00 -7.83789854e-06  0.00000000e+00
  0.00000000e+00 -6.13818766e-05 -2.05395714e-05  0.00000000e+00  0.00000000e+00
 -1.35895432e-10  0.00000000e+00  7.87877072e-06  0.00000000e+00  0.00000000e+00
  1.07034605e-10  0.00000000e+00  3.05557561e-07  0.00000000e+00  0.00000000e+00
 -8.92864279e-11  0.00000000e+00  0.00000000e+00  0.00000000e+00 -2.71127857e-04
  0.00000000e+00  0.00000000e+00 -1.15981272e-04  9.78174946e-01  5.87117112e-04
  4.14066701e-02  4.89909692e-03  0.00000000e+00  0.00000000e+00 -7.72842544e-04
  0.00000000e+00  0.00000000e+00  1.22378226e-03  0.00000000e+00  0.00000000e+00
 -3.24554952e-05  1.82369437e-03  0.00000000e+00  0.00000000e+00  5.95610936e-05
  0.00000000e+00 -6.85084196e-04  0.00000000e+00  0.00000000e+00  5.28822688e-06
  0.00000000e+00  6.87365259e-06  0.00000000e+00  0.00000000e+00 -2.12794599e-05
  0.00000000e+00  0.00000000e+00  0.00000000e+00  1.51729807e-03  0.00000000e+00
  0.00000000e+00  2.59524698e-04 -4.00948208e-04  3.53239347e-04  3.59225920e-04
 -1.13929702e-03  0.00000000e+00  0.00000000e+00 -3.67780700e-04  0.00000000e+00
  0.00000000e+00  2.77146596e-04  0.00000000e+00  0.00000000e+00  7.67170366e-04
 -6.83156151e-05  0.00000000e+00  0.00000000e+00 -3.50277449e-06  0.00000000e+00
 -6.54375500e-04  0.00000000e+00  0.00000000e+00  4.32493665e-06  0.00000000e+00
  1.84891519e-04  0.00000000e+00  0.00000000e+00  2.18005419e-06  0.00000000e+00
  0.00000000e+00  0.00000000e+00 -1.22156933e-03  0.00000000e+00  0.00000000e+00
  9.10580239e-05 -1.80685885e-04  6.10322053e-04  3.46754988e-04  4.54707607e-04
  0.00000000e+00  0.00000000e+00  4.65395453e-04  0.00000000e+00  0.00000000e+00
  1.24612940e-04  0.00000000e+00  0.00000000e+00  2.76927075e-05  6.58891841e-05
  0.00000000e+00  0.00000000e+00 -1.52037174e-06  0.00000000e+00 -5.31031581e-04
  0.00000000e+00  0.00000000e+00 -7.87961819e-06  0.00000000e+00 -1.04729591e-04
  0.00000000e+00  0.00000000e+00 -7.00514188e-06  0.00000000e+00  0.00000000e+00
  0.00000000e+00 -2.34564191e-03  0.00000000e+00  0.00000000e+00 -1.22539004e-03
  0.00000000e+00  0.00000000e+00  0.00000000e+00  0.00000000e+00  0.00000000e+00
  0.00000000e+00  9.72518729e-01  0.00000000e+00  0.00000000e+00 -4.73841504e-04
  0.00000000e+00  0.00000000e+00  5.68450849e-02  0.00000000e+00  0.00000000e+00
  2.38054717e-03  0.00000000e+00  0.00000000e+00  0.00000000e+00 -1.91194417e-06
  0.00000000e+00  0.00000000e+00  0.00000000e+00  0.00000000e+00 -1.20839081e-06
  0.00000000e+00  0.00000000e+00  0.00000000e+00  0.00000000e+00 -8.18605678e-07
  0.00000000e+00  0.00000000e+00  0.00000000e+00 -5.47134950e-08  0.00000000e+00
  0.00000000e+00 -7.16436505e-04  0.00000000e+00  0.00000000e+00  0.00000000e+00
  0.00000000e+00  0.00000000e+00  0.00000000e+00 -1.76935756e-06  0.00000000e+00
  0.00000000e+00  4.56836667e-06  0.00000000e+00  0.00000000e+00 -6.24616634e-05
  0.00000000e+00  0.00000000e+00  0.00000000e+00 -8.27082846e-08  0.00000000e+00
  0.00000000e+00  0.00000000e+00  0.00000000e+00 -1.10677236e-05  0.00000000e+00
  0.00000000e+00  0.00000000e+00  0.00000000e+00 -1.22102239e-06  0.00000000e+00
  0.00000000e+00  0.00000000e+00 -2.03350124e-10  0.00000000e+00  0.00000000e+00
  1.56644198e-04  0.00000000e+00  0.00000000e+00  0.00000000e+00  0.00000000e+00
  0.00000000e+00  0.00000000e+00  3.33586766e-06  0.00000000e+00  0.00000000e+00
 -1.33836347e-05  0.00000000e+00  0.00000000e+00  6.18642808e-05  0.00000000e+00
  0.00000000e+00  0.00000000e+00  1.81315912e-06  0.00000000e+00  0.00000000e+00
  0.00000000e+00  0.00000000e+00 -9.78251930e-06  0.00000000e+00  0.00000000e+00
  0.00000000e+00  0.00000000e+00  1.32979083e-06  0.00000000e+00  0.00000000e+00
  0.00000000e+00  1.86413403e-09  0.00000000e+00  0.00000000e+00 -1.29488279e-04
  0.00000000e+00  0.00000000e+00  0.00000000e+00  0.00000000e+00  0.00000000e+00
  0.00000000e+00  1.48152030e-06  0.00000000e+00  0.00000000e+00 -7.04302892e-06
  0.00000000e+00  0.00000000e+00  1.79276622e-05  0.00000000e+00  0.00000000e+00
  0.00000000e+00  7.16318669e-07  0.00000000e+00  0.00000000e+00  0.00000000e+00
  0.00000000e+00 -2.99832646e-06  0.00000000e+00  0.00000000e+00  0.00000000e+00
  0.00000000e+00  7.57577345e-09  0.00000000e+00  0.00000000e+00  0.00000000e+00
  7.00701081e-10  0.00000000e+00  0.00000000e+00  2.17939116e-05  0.00000000e+00
  0.00000000e+00  0.00000000e+00  0.00000000e+00  0.00000000e+00  0.00000000e+00
  9.72519077e-01  0.00000000e+00  0.00000000e+00 -4.73656957e-04  0.00000000e+00
  0.00000000e+00  5.68445095e-02  0.00000000e+00  0.00000000e+00  2.38043397e-03
  0.00000000e+00  0.00000000e+00  0.00000000e+00 -1.93991737e-06  0.00000000e+00
  0.00000000e+00  0.00000000e+00  0.00000000e+00 -1.21215452e-06  0.00000000e+00
  0.00000000e+00  0.00000000e+00  0.00000000e+00 -7.96185652e-07  0.00000000e+00
  0.00000000e+00  0.00000000e+00 -5.47132530e-08  0.00000000e+00  0.00000000e+00
 -7.16397569e-04  0.00000000e+00  0.00000000e+00  0.00000000e+00  0.00000000e+00
  0.00000000e+00  0.00000000e+00 -1.77116864e-06  0.00000000e+00  0.00000000e+00
  4.57816392e-06  0.00000000e+00  0.00000000e+00 -6.24560199e-05  0.00000000e+00
  0.00000000e+00  0.00000000e+00 -8.33402396e-08  0.00000000e+00  0.00000000e+00
  0.00000000e+00  0.00000000e+00 -1.10575610e-05  0.00000000e+00  0.00000000e+00
  0.00000000e+00  0.00000000e+00 -1.21831998e-06  0.00000000e+00  0.00000000e+00
  0.00000000e+00 -1.99690322e-10  0.00000000e+00  0.00000000e+00  1.56603089e-04
  0.00000000e+00  0.00000000e+00  0.00000000e+00  0.00000000e+00  0.00000000e+00
  0.00000000e+00  3.33532369e-06  0.00000000e+00  0.00000000e+00 -1.33759856e-05
  0.00000000e+00  0.00000000e+00  6.18307022e-05  0.00000000e+00  0.00000000e+00
  0.00000000e+00  1.81136441e-06  0.00000000e+00  0.00000000e+00  0.00000000e+00
  0.00000000e+00 -9.77069979e-06  0.00000000e+00  0.00000000e+00  0.00000000e+00
  0.00000000e+00  1.32620815e-06  0.00000000e+00  0.00000000e+00  0.00000000e+00
  1.87714208e-09  0.00000000e+00  0.00000000e+00 -1.29453090e-04  0.00000000e+00
  0.00000000e+00  0.00000000e+00  0.00000000e+00  0.00000000e+00  0.00000000e+00
  1.48449903e-06  0.00000000e+00  0.00000000e+00 -7.03483749e-06  0.00000000e+00
  0.00000000e+00  1.79259841e-05  0.00000000e+00  0.00000000e+00  0.00000000e+00
  7.15976877e-07  0.00000000e+00  0.00000000e+00  0.00000000e+00  0.00000000e+00
 -2.99930156e-06  0.00000000e+00  0.00000000e+00  0.00000000e+00  0.00000000e+00
  6.68784571e-09  0.00000000e+00  0.00000000e+00  0.00000000e+00  6.71287953e-10
  0.00000000e+00  0.00000000e+00  2.18122304e-05  0.00000000e+00  0.00000000e+00
 -2.81541617e-06  3.99939788e-06 -2.25481122e-05  9.90705267e-06 -1.64749954e-05
  0.00000000e+00  0.00000000e+00  9.72462042e-01  0.00000000e+00  0.00000000e+00
 -5.80491205e-04  0.00000000e+00  0.00000000e+00  5.68796261e-02  0.00000000e+00
  0.00000000e+00  2.54773242e-03  2.87177373e-05  0.00000000e+00  0.00000000e+00
 -1.42071214e-08  0.00000000e+00 -1.44777156e-05  0.00000000e+00  0.00000000e+00
 -2.59010456e-09  0.00000000e+00  4.11878141e-07  0.00000000e+00  0.00000000e+00
 -4.93952259e-08  0.00000000e+00  0.00000000e+00  0.00000000e+00  1.43682157e-04