[Molden Format]
[Atoms] AU
Ar      1  18     0.0000000     0.0000000    -8.8777406
[GTO]
     1     0
s  13 1.0
  5.45000000E+05  4.55816851E-05
  8.16400000E+04  3.54099339E-04
  1.85800000E+04  1.85792456E-03
  5.26100000E+03  7.76831999E-03
  1.71700000E+03  2.74225293E-02
  6.19900000E+02  8.23815850E-02
  2.41600000E+02  2.01225078E-01
  9.97900000E+01  3.56772274E-01
  4.31500000E+01  3.49554450E-01
  1.91400000E+01  1.18263107E-01
  7.48800000E+00  5.60176299E-03
  3.20500000E+00  4.83461175E-04
  5.20400000E-01  2.92017857E-05
s  13 1.0
  5.45000000E+05 -1.38905279E-05
  8.16400000E+04 -1.07679442E-04
  1.85800000E+04 -5.67821742E-04
  5.26100000E+03 -2.37381982E-03
  1.71700000E+03 -8.54381497E-03
  6.19900000E+02 -2.63551299E-02
  2.41600000E+02 -7.05294555E-02
  9.97900000E+01 -1.47902155E-01
  4.31500000E+01 -2.16188771E-01
  1.91400000E+01 -4.42642836E-02
  7.48800000E+00  5.19676504E-01
  3.20500000E+00  6.21047089E-01
  5.20400000E-01 -7.80086241E-03
s  13 1.0
  5.45000000E+05  6.24207639E-06
  8.16400000E+04  4.83489267E-05
  1.85800000E+04  2.55308769E-04
  5.26100000E+03  1.06605275E-03
  1.71700000E+03  3.84999200E-03
  6.19900000E+02  1.18844979E-02
  2.41600000E+02  3.21689111E-02
  9.97900000E+01  6.84279475E-02
  4.31500000E+01  1.04842346E-01
  1.91400000E+01  2.17861552E-02
  7.48800000E+00 -3.19801029E-01
  3.20500000E+00 -6.55118240E-01
  5.20400000E-01  1.13073305E+00
s   1 1.0
  1.19600000E+00  1.00000000E+00
s   1 1.0
  1.95400000E-01  1.00000000E+00
p   7 1.0
  7.61800000E+02  2.43607294E-03
  1.80200000E+02  1.95521334E-02
  5.75000000E+01  9.05454602E-02
  2.12400000E+01  2.63551192E-01
  8.38800000E+00  4.50987440E-01
  3.41600000E+00  3.57295015E-01
  4.52300000E-01 -5.38541778E-03
p   7 1.0
  7.61800000E+02 -1.14159413E-03
  1.80200000E+02 -9.11475682E-03
  5.75000000E+01 -4.37148745E-02
  2.12400000E+01 -1.29555965E-01
  8.38800000E+00 -2.41477740E-01
  3.41600000E+00 -1.59596061E-01
  4.52300000E-01  9.62348672E-01
p   1 1.0
  1.20600000E+00  1.00000000E+00
p   1 1.0
  1.54500000E-01  1.00000000E+00
d   1 1.0
  4.10000000E-01  1.00000000E+00
d   1 1.0
  1.25400000E+00  1.00000000E+00
f   1 1.0
  8.90000000E-01  1.00000000E+00
s   1 1.0
  6.85000000E-02  1.00000000E+00
p   1 1.0
  4.87000000E-02  1.00000000E+00
 
 
[5D]
[MO]
Ene=      0.00000000
Spin= Alpha
Occup=  1.999998
     1      0.9994283024
     2      0.0322284857
     3     -0.0005695967
     4      0.0028234920
     5     -0.0003083909
     6      0.0000000000
     7     -0.0000000000
     8     -0.0000000000
     9     -0.0000000000
    10     -0.0000000000
    11      0.0000000000
    12      0.0000000000
    13     -0.0000000000
    14     -0.0000000000
    15     -0.0000000000
    16     -0.0000000000
    17      0.0000000000
    18      0.0000000000
    19      0.0000000000
    20      0.0000000000
    21      0.0000000000
    22      0.0000000000
    23      0.0000000000
    24     -0.0000000000
    25     -0.0000000000
    26      0.0000000000
    27     -0.0000000000
    28     -0.0000000000
    29      0.0000000000
    30      0.0000000000
    31      0.0000000000
    32     -0.0000000000
    33     -0.0000000000
    34     -0.0000000000
    35     -0.0000127581
    36     -0.0000000000
    37     -0.0000000000
    38      0.0000000000
Ene=      0.00000000
Spin= Alpha
Occup=  1.999614
     1      0.0349339427
     2     -0.9300370070
     3      0.0155975089
     4     -0.0881463510
     5      0.0059390619
     6     -0.0000000000
     7      0.0000000000
     8     -0.0000000000
     9      0.0000000000
    10     -0.0000000000
    11      0.0000000000
    12     -0.0000000000
    13      0.0000000000
    14     -0.0000000000
    15      0.0000000000
    16     -0.0000000000
    17      0.0000000000
    18      0.0000000000
    19      0.0000000000
    20      0.0000000000
    21     -0.0000000000
    22      0.0000000000
    23     -0.0000000000
    24      0.0000000000
    25     -0.0000000000
    26      0.0000000000
    27      0.0000000000
    28     -0.0000000000
    29     -0.0000000000
    30      0.0000000000
    31     -0.0000000000
    32      0.0000000000
    33      0.0000000000
    34     -0.0000000000
    35      0.0007153229
    36      0.0000000000
    37     -0.0000000000
    38      0.0000000000
Ene=      0.00000000
Spin= Alpha
Occup=  1.999423
     1     -0.0000000000
     2      0.0000000000
     3     -0.0000000000
     4      0.0000000000
     5     -0.0000000000
     6      0.2361530126
     7      0.9414733920
     8      0.0007795479
     9     -0.0040399497
    10     -0.0161061047
    11     -0.0000133360
    12      0.0126660125
    13      0.0504957089
    14      0.0000418109
    15     -0.0014099793
    16     -0.0056211776
    17     -0.0000046544
    18     -0.0000000000
    19     -0.0000000000
    20      0.0000000000
    21      0.0000000000
    22     -0.0000000000
    23      0.0000000000
    24      0.0000000000
    25      0.0000000000
    26      0.0000000000
    27      0.0000000000
    28      0.0000000000
    29      0.0000000000
    30      0.0000000000
    31      0.0000000000
    32      0.0000000000
    33     -0.0000000000
    34      0.0000000000
    35     -0.0000000000
    36     -0.0002644498
    37     -0.0010542843
    38     -0.0000008730
Ene=      0.00000000
Spin= Alpha
Occup=  1.999423
     1     -0.0000000000
     2     -0.0000000000
     3      0.0000000000
     4     -0.0000000000
     5      0.0000000000
     6      0.9413753545
     7     -0.2361166424
     8     -0.0142258212
     9     -0.0161044275
    10      0.0040393275
    11      0.0002433659
    12      0.0504904507
    13     -0.0126640618
    14     -0.0007629986
    15     -0.0056205923
    16      0.0014097622
    17      0.0000849369
    18     -0.0000000000
    19      0.0000000000
    20      0.0000000000
    21      0.0000000000
    22      0.0000000000
    23     -0.0000000000
    24      0.0000000000
    25      0.0000000000
    26      0.0000000000
    27     -0.0000000000
    28     -0.0000000000
    29      0.0000000000
    30      0.0000000000
    31      0.0000000000
    32      0.0000000000
    33     -0.0000000000
    34      0.0000000000
    35      0.0000000000
    36     -0.0010541745
    37      0.0002644090
    38      0.0000159304
Ene=      0.00000000
Spin= Alpha
Occup=  1.999423
     1      0.0000000000
     2     -0.0000000000
     3      0.0000000000
     4     -0.0000000000
     5      0.0000000000
     6      0.0136087272
     7     -0.0042171350
     8      0.9705349139
     9     -0.0002328091
    10      0.0000721440
    11     -0.0166032700
    12      0.0007299010
    13     -0.0002261851
    14      0.0520544170
    15     -0.0000812525
    16      0.0000251789
    17     -0.0057946928
    18     -0.0000000000
    19      0.0000000000
    20      0.0000000000
    21      0.0000000000
    22      0.0000000000
    23      0.0000000000
    24      0.0000000000
    25      0.0000000000
    26      0.0000000000
    27     -0.0000000000
    28     -0.0000000000
    29     -0.0000000000
    30      0.0000000000
    31     -0.0000000000
    32     -0.0000000000
    33     -0.0000000000
    34     -0.0000000000
    35      0.0000000000
    36     -0.0000152394
    37      0.0000047224
    38     -0.0010868281
Ene=      0.00000000
Spin= Alpha
Occup=  1.982156
     1     -0.0000090882
     2     -0.0211245227
     3     -0.6528141921
     4     -0.0766925739
     5     -0.3843111993
     6     -0.0000000000
     7      0.0000000000
     8     -0.0000000000
     9      0.0000000000
    10     -0.0000000000
    11     -0.0000000000
    12      0.0000000000
    13     -0.0000000000
    14     -0.0000000000
    15      0.0000000000
    16     -0.0000000000
    17     -0.0000000000
    18      0.0000000000
    19      0.0000000000
    20      0.0000000000
    21     -0.0000000000
    22      0.0000000000
    23     -0.0000000000
    24      0.0000000000
    25      0.0000000000
    26      0.0000000000
    27     -0.0000000000
    28      0.0000000000
    29      0.0000000000
    30     -0.0000000000
    31      0.0000000000
    32     -0.0000000000
    33     -0.0000000000
    34     -0.0000000000
    35     -0.0066866538
    36      0.0000000000
    37     -0.0000000000
    38     -0.0000000000
Ene=      0.00000000
Spin= Alpha
Occup=  1.960219
     1     -0.0000000000
     2      0.0000000000
     3     -0.0000000000
     4      0.0000000000
     5     -0.0000000000
     6     -0.0000000000
     7      0.0000000000
     8      0.0240136521
     9      0.0000000000
    10     -0.0000000000
    11      0.5856975012
    12      0.0000000000
    13     -0.0000000000
    14      0.2865438542
    15      0.0000000000
    16     -0.0000000000
    17      0.3153312909
    18      0.0000000000
    19      0.0000000000
    20      0.0000000000
    21     -0.0000000000
    22      0.0000000000
    23      0.0000000000
    24     -0.0000000000
    25     -0.0000000000
    26      0.0000000000
    27     -0.0000000000
    28     -0.0000000000
    29      0.0000000000
    30     -0.0000000000
    31      0.0000000000
    32     -0.0000000000
    33     -0.0000000000
    34     -0.0000000000
    35     -0.0000000000
    36     -0.0000000000
    37      0.0000000000
    38      0.0120586431
Ene=      0.00000000
Spin= Alpha
Occup=  1.960219
     1      0.0000000000
     2     -0.0000000000
     3      0.0000000000
     4      0.0000000000
     5      0.0000000000
     6      0.0239987306
     7      0.0008464143
     8      0.0000000000
     9      0.5853335629
    10      0.0206442033
    11     -0.0000000000
    12      0.2863658027
    13      0.0100998716
    14     -0.0000000000
    15      0.3151353516
    16      0.0111145485
    17     -0.0000000000
    18      0.0000000000
    19      0.0000000000
    20     -0.0000000000
    21      0.0000000000
    22      0.0000000000
    23     -0.0000000000
    24     -0.0000000000
    25     -0.0000000000
    26      0.0000000000
    27     -0.0000000000
    28      0.0000000000
    29      0.0000000000
    30      0.0000000000
    31      0.0000000000
    32      0.0000000000
    33      0.0000000000
    34      0.0000000000
    35     -0.0000000000
    36      0.0120511501
    37      0.0004250335
    38      0.0000000000
Ene=      0.00000000
Spin= Alpha
Occup=  1.960219
     1     -0.0000000000
     2     -0.0000000000
     3      0.0000000000
     4      0.0000000000
     5      0.0000000000
     6      0.0008464143
     7     -0.0239987306
     8      0.0000000000
     9      0.0206442033
    10     -0.5853335629
    11     -0.0000000000
    12      0.0100998716
    13     -0.2863658027
    14     -0.0000000000
    15      0.0111145485
    16     -0.3151353516
    17     -0.0000000000
    18     -0.0000000000
    19      0.0000000000
    20     -0.0000000000
    21     -0.0000000000
    22     -0.0000000000
    23      0.0000000000
    24     -0.0000000000
    25      0.0000000000
    26     -0.0000000000
    27      0.0000000000
    28     -0.0000000000
    29     -0.0000000000
    30     -0.0000000000
    31      0.0000000000
    32      0.0000000000
    33     -0.0000000000
    34      0.0000000000
    35      0.0000000000
    36      0.0004250335
    37     -0.0120511501
    38     -0.0000000000
Ene=      0.00000000
Spin= Alpha
Occup=  0.018436
     1      0.0000000000
     2      0.0000000000
     3      0.0000000000
     4      0.0000000000
     5     -0.0000000000
     6      0.0000000000
     7      0.0000000000
     8     -0.0000000000
     9      0.0000000000
    10      0.0000000000
    11     -0.0000000000
    12     -0.0000000000
    13     -0.0000000000
    14      0.0000000000
    15     -0.0000000000
    16     -0.0000000000
    17      0.0000000000
    18      0.0081814255
    19     -0.1511607493
    20     -0.6027322182
    21     -0.0330715235
    22     -0.0053610727
    23      0.0065187885
    24     -0.1204417189
    25     -0.4802444068
    26     -0.0263506972
    27     -0.0042715904
    28     -0.0000000000
    29     -0.0000000000
    30      0.0000000000
    31     -0.0000000000
    32      0.0000000000
    33      0.0000000000
    34     -0.0000000000
    35     -0.0000000000
    36      0.0000000000
    37      0.0000000000
    38      0.0000000000
Ene=      0.00000000
Spin= Alpha
Occup=  0.018436
     1     -0.0000000000
     2     -0.0000000000
     3     -0.0000000000
     4      0.0000000000
     5      0.0000000000
     6      0.0000000000
     7     -0.0000000000
     8     -0.0000000000
     9      0.0000000000
    10     -0.0000000000
    11      0.0000000000
    12     -0.0000000000
    13      0.0000000000
    14      0.0000000000
    15      0.0000000000
    16      0.0000000000
    17     -0.0000000000
    18     -0.0128321396
    19      0.5628002466
    20     -0.1302945640
    21     -0.2147971355
    22      0.0854507888
    23     -0.0102243801
    24      0.4484274482
    25     -0.1038159795
    26     -0.1711458585
    27      0.0680853987
    28     -0.0000000000
    29     -0.0000000000
    30      0.0000000000
    31     -0.0000000000
    32      0.0000000000
    33      0.0000000000
    34     -0.0000000000
    35      0.0000000000
    36      0.0000000000
    37      0.0000000000
    38     -0.0000000000
Ene=      0.00000000
Spin= Alpha
Occup=  0.018436
     1      0.0000000000
     2      0.0000000000
     3      0.0000000000
     4     -0.0000000000
     5     -0.0000000000
     6     -0.0000000000
     7      0.0000000000
     8      0.0000000000
     9     -0.0000000000
    10      0.0000000000
    11     -0.0000000000
    12      0.0000000000
    13     -0.0000000000
    14     -0.0000000000
    15      0.0000000000
    16     -0.0000000000
    17      0.0000000000
    18      0.0230856920
    19      0.2176393233
    20     -0.0828549418
    21      0.5493967900
    22     -0.1752812112
    23      0.0183941958
    24      0.1734104542
    25     -0.0660170822
    26      0.4377478548
    27     -0.1396603977
    28      0.0000000000
    29     -0.0000000000
    30      0.0000000000
    31      0.0000000000
    32     -0.0000000000
    33      0.0000000000
    34     -0.0000000000
    35     -0.0000000000
    36     -0.0000000000
    37     -0.0000000000
    38      0.0000000000
Ene=      0.00000000
Spin= Alpha
Occup=  0.018436
     1     -0.0000000000
     2     -0.0000000000
     3     -0.0000000000
     4      0.0000000000
     5      0.0000000000
     6      0.0000000000
     7     -0.0000000000
     8     -0.0000000000
     9      0.0000000000
    10     -0.0000000000
    11      0.0000000000
    12      0.0000000000
    13      0.0000000000
    14      0.0000000000
    15     -0.0000000000
    16      0.0000000000
    17     -0.0000000000
    18     -0.6187911521
    19     -0.0072753721
    20     -0.0093804305
    21      0.0431602679
    22      0.0491821036
    23     -0.4930398290
    24     -0.0057968641
    25     -0.0074741305
    26      0.0343891975
    27      0.0391872700
    28     -0.0000000000
    29      0.0000000000
    30      0.0000000000
    31      0.0000000000
    32      0.0000000000
    33      0.0000000000
    34     -0.0000000000
    35     -0.0000000000
    36      0.0000000000
    37      0.0000000000
    38     -0.0000000000
Ene=      0.00000000
Spin= Alpha
Occup=  0.018436
     1      0.0000000000
     2      0.0000000000
     3      0.0000000000
     4     -0.0000000000
     5     -0.0000000000
     6     -0.0000000000
     7      0.0000000000
     8      0.0000000000
     9     -0.0000000000
    10     -0.0000000000
    11      0.0000000000
    12      0.0000000000
    13     -0.0000000000
    14      0.0000000000
    15      0.0000000000
    16      0.0000000000
    17     -0.0000000000
    18     -0.0604819217
    19      0.0176523572
    20      0.0104578855
    21     -0.1907719182
    22     -0.5889415427
    23     -0.0481907284
    24      0.0140650285
    25      0.0083326241
    26     -0.1520030686
    27     -0.4692562855
    28      0.0000000000
    29     -0.0000000000
    30      0.0000000000
    31      0.0000000000
    32      0.0000000000
    33      0.0000000000
    34      0.0000000000
    35      0.0000000000
    36     -0.0000000000
    37     -0.0000000000
    38     -0.0000000000
Ene=      0.00000000
Spin= Alpha
Occup=  0.008623
     1      0.0000000000
     2      0.0000000000
     3      0.0000000000
     4     -0.0000000000
     5     -0.0000000000
     6     -0.3599423542
     7     -0.0281354842
     8      0.0002246253
     9      0.1020213374
    10      0.0079746651
    11     -0.0000636674
    12      0.9035246738
    13      0.0706254874
    14     -0.0005638529
    15     -0.8998613904
    16     -0.0703391409
    17      0.0005615668
    18      0.0000000000
    19      0.0000000000
    20     -0.0000000000
    21     -0.0000000000
    22     -0.0000000000
    23      0.0000000000
    24     -0.0000000000
    25      0.0000000000
    26      0.0000000000
    27      0.0000000000
    28      0.0000000000
    29     -0.0000000000
    30     -0.0000000000
    31     -0.0000000000
    32     -0.0000000000
    33     -0.0000000000
    34     -0.0000000000
    35     -0.0000000000
    36     -0.0153085221
    37     -0.0011966157
    38      0.0000095534
Ene=      0.00000000
Spin= Alpha
Occup=  0.008623
     1     -0.0000000000
     2      0.0000000000
     3      0.0000000000
     4      0.0000000000
     5     -0.0000000000
     6     -0.0256333599
     7      0.3267228775
     8     -0.1514768843
     9      0.0072654680
    10     -0.0926056757
    11      0.0429343036
    12      0.0643446732
    13     -0.8201373855
    14      0.3802361708
    15     -0.0640837918
    16      0.8168121905
    17     -0.3786945273
    18      0.0000000000
    19     -0.0000000000
    20     -0.0000000000
    21      0.0000000000
    22      0.0000000000
    23      0.0000000000
    24      0.0000000000
    25     -0.0000000000
    26      0.0000000000
    27     -0.0000000000
    28      0.0000000000
    29     -0.0000000000
    30      0.0000000000
    31     -0.0000000000
    32      0.0000000000
    33      0.0000000000
    34      0.0000000000
    35      0.0000000000
    36     -0.0010901992
    37      0.0138956817
    38     -0.0064423850
Ene=      0.00000000
Spin= Alpha
Occup=  0.008623
     1     -0.0000000000
     2     -0.0000000000
     3      0.0000000000
     4      0.0000000000
     5      0.0000000000
     6     -0.0116011546
     7      0.1510321494
     8      0.3277268029
     9      0.0032882080
    10     -0.0428082488
    11     -0.0928902263
    12      0.0291211338
    13     -0.3791198004
    14     -0.8226574318
    15     -0.0290030640
    16      0.3775826832
    17      0.8193220194
    18     -0.0000000000
    19     -0.0000000000
    20     -0.0000000000
    21      0.0000000000
    22      0.0000000000
    23     -0.0000000000
    24      0.0000000000
    25     -0.0000000000
    26      0.0000000000
    27     -0.0000000000
    28      0.0000000000
    29     -0.0000000000
    30      0.0000000000
    31     -0.0000000000
    32      0.0000000000
    33      0.0000000000
    34      0.0000000000
    35     -0.0000000000
    36     -0.0004934027
    37      0.0064234702
    38      0.0139383791
Ene=      0.00000000
Spin= Alpha
Occup=  0.006623
     1      0.0651163323
     2      0.1317360451
     3     -0.8720022971
     4     -1.0556618976
     5      1.5516034821
     6     -0.0000000000
     7      0.0000000000
     8     -0.0000000000
     9     -0.0000000000
    10      0.0000000000
    11     -0.0000000000
    12      0.0000000000
    13     -0.0000000000
    14      0.0000000000
    15     -0.0000000000
    16     -0.0000000000
    17      0.0000000000
    18     -0.0000000000
    19      0.0000000000
    20     -0.0000000000
    21     -0.0000000000
    22      0.0000000000
    23     -0.0000000000
    24     -0.0000000000
    25      0.0000000000
    26      0.0000000000
    27     -0.0000000000
    28      0.0000000000
    29      0.0000000000
    30     -0.0000000000
    31      0.0000000000
    32     -0.0000000000
    33      0.0000000000
    34     -0.0000000000
    35     -0.0365790754
    36      0.0000000000
    37      0.0000000000
    38     -0.0000000000
Ene=      0.00000000
Spin= Alpha
Occup=  0.001257
     1      0.0000000000
     2      0.0000000000
     3      0.0000000000
     4     -0.0000000000
     5     -0.0000000000
     6      0.0000000000
     7      0.0000000000
     8     -0.0000000000
     9      0.0000000000
    10      0.0000000000
    11     -0.0000000000
    12     -0.0000000000
    13     -0.0000000000
    14      0.0000000000
    15     -0.0000000000
    16     -0.0000000000
    17      0.0000000000
    18      0.0000000000
    19     -0.0000000000
    20     -0.0000000000
    21      0.0000000000
    22      0.0000000000
    23     -0.0000000000
    24      0.0000000000
    25      0.0000000000
    26     -0.0000000000
    27     -0.0000000000
    28     -0.0408074374
    29     -0.0239225039
    30      0.8195604843
    31      0.0384282656
    32     -0.5589345139
    33     -0.1077206198
    34      0.0243890354
    35      0.0000000000
    36     -0.0000000000
    37      0.0000000000
    38     -0.0000000000
Ene=      0.00000000
Spin= Alpha
Occup=  0.001257
     1     -0.0000000000
     2     -0.0000000000
     3     -0.0000000000
     4      0.0000000000
     5      0.0000000000
     6     -0.0000000000
     7     -0.0000000000
     8     -0.0000000000
     9     -0.0000000000
    10     -0.0000000000
    11     -0.0000000000
    12      0.0000000000
    13      0.0000000000
    14      0.0000000000
    15      0.0000000000
    16      0.0000000000
    17      0.0000000000
    18      0.0000000000
    19     -0.0000000000
    20      0.0000000000
    21     -0.0000000000
    22     -0.0000000000
    23     -0.0000000000
    24      0.0000000000
    25     -0.0000000000
    26      0.0000000000
    27      0.0000000000
    28     -0.2747203460
    29      0.0778616748
    30      0.5140175076
    31      0.0265755510
    32      0.7979128367
    33     -0.1275408725
    34      0.0247883828
    35      0.0000000000
    36     -0.0000000000
    37     -0.0000000000
    38     -0.0000000000
Ene=      0.00000000
Spin= Alpha
Occup=  0.001257
     1     -0.0000000000
     2     -0.0000000000
     3     -0.0000000000
     4      0.0000000000
     5      0.0000000000
     6      0.0000000000
     7      0.0000000000
     8     -0.0000000000
     9      0.0000000000
    10      0.0000000000
    11     -0.0000000000
    12     -0.0000000000
    13     -0.0000000000
    14      0.0000000000
    15     -0.0000000000
    16     -0.0000000000
    17      0.0000000000
    18      0.0000000000
    19     -0.0000000000
    20     -0.0000000000
    21     -0.0000000000
    22     -0.0000000000
    23     -0.0000000000
    24      0.0000000000
    25      0.0000000000
    26      0.0000000000
    27      0.0000000000
    28     -0.9292031553
    29      0.1475234255
    30     -0.2037902857
    31      0.0488068691
    32     -0.2175287816
    33     -0.0524385188
    34      0.1443508747
    35     -0.0000000000
    36      0.0000000000
    37      0.0000000000
    38     -0.0000000000
Ene=      0.00000000
Spin= Alpha
Occup=  0.001257
     1     -0.0000000000
     2     -0.0000000000
     3     -0.0000000000
     4      0.0000000000
     5     -0.0000000000
     6      0.0000000000
     7      0.0000000000
     8      0.0000000000
     9      0.0000000000
    10      0.0000000000
    11      0.0000000000
    12     -0.0000000000
    13     -0.0000000000
    14     -0.0000000000
    15     -0.0000000000
    16     -0.0000000000
    17     -0.0000000000
    18      0.0000000000
    19      0.0000000000
    20     -0.0000000000
    21      0.0000000000
    22     -0.0000000000
    23     -0.0000000000
    24     -0.0000000000
    25      0.0000000000
    26     -0.0000000000
    27      0.0000000000
    28      0.0568514261
    29     -0.1132089855
    30     -0.1451800719
    31      0.0349483067
    32     -0.0282466764
    33     -0.9714927047
    34     -0.1306026550
    35      0.0000000000
    36      0.0000000000
    37      0.0000000000
    38      0.0000000000
Ene=      0.00000000
Spin= Alpha
Occup=  0.001257
     1     -0.0000000000
     2     -0.0000000000
     3     -0.0000000000
     4      0.0000000000
     5      0.0000000000
     6     -0.0000000000
     7     -0.0000000000
     8      0.0000000000
     9     -0.0000000000
    10     -0.0000000000
    11      0.0000000000
    12      0.0000000000
    13      0.0000000000
    14     -0.0000000000
    15      0.0000000000
    16      0.0000000000
    17     -0.0000000000
    18     -0.0000000000
    19      0.0000000000
    20     -0.0000000000
    21      0.0000000000
    22     -0.0000000000
    23      0.0000000000
    24     -0.0000000000
    25      0.0000000000
    26     -0.0000000000
    27      0.0000000000
    28     -0.1302350084
    29     -0.1015645366
    30      0.0062499687
    31      0.4815404541
    32     -0.0069956927
    33      0.1350768166
    34     -0.8500050178
    35     -0.0000000000
    36      0.0000000000
    37      0.0000000000
    38      0.0000000000
Ene=      0.00000000
Spin= Alpha
Occup=  0.001257
     1      0.0000000000
     2      0.0000000000
     3      0.0000000000
     4     -0.0000000000
     5     -0.0000000000
     6     -0.0000000000
     7     -0.0000000000
     8     -0.0000000000
     9     -0.0000000000
    10     -0.0000000000
    11     -0.0000000000
    12      0.0000000000
    13      0.0000000000
    14      0.0000000000
    15      0.0000000000
    16      0.0000000000
    17      0.0000000000
    18      0.0000000000
    19      0.0000000000
    20     -0.0000000000
    21     -0.0000000000
    22     -0.0000000000
    23     -0.0000000000
    24     -0.0000000000
    25      0.0000000000
    26      0.0000000000
    27      0.0000000000
    28      0.0245343915
    29     -0.5092908818
    30     -0.0288143901
    31      0.7192938471
    32      0.0424822614
    33      0.0267773895
    34      0.4682789581
    35     -0.0000000000
    36     -0.0000000000
    37     -0.0000000000
    38     -0.0000000000
Ene=      0.00000000
Spin= Alpha
Occup=  0.001257
     1     -0.0000000000
     2     -0.0000000000
     3     -0.0000000000
     4      0.0000000000
     5      0.0000000000
     6      0.0000000000
     7     -0.0000000000
     8     -0.0000000000
     9      0.0000000000
    10     -0.0000000000
    11     -0.0000000000
    12     -0.0000000000
    13      0.0000000000
    14      0.0000000000
    15     -0.0000000000
    16      0.0000000000
    17      0.0000000000
    18      0.0000000000
    19     -0.0000000000
    20      0.0000000000
    21     -0.0000000000
    22     -0.0000000000
    23     -0.0000000000
    24      0.0000000000
    25     -0.0000000000
    26      0.0000000000
    27      0.0000000000
    28     -0.1965955297
    29     -0.8301164259
    30      0.0250908223
    31     -0.4949228893
    32      0.0309351973
    33      0.0813569012
    34     -0.1382127692
    35      0.0000000000
    36      0.0000000000
    37      0.0000000000
    38     -0.0000000000
Ene=      0.00000000
Spin= Alpha
Occup=  0.000660
     1     -0.0000000000
     2     -0.0000000000
     3     -0.0000000000
     4      0.0000000000
     5      0.0000000000
     6     -0.0000000000
     7     -0.0000000000
     8     -0.0000000000
     9     -0.0000000000
    10     -0.0000000001
    11     -0.0000000000
    12      0.0000000000
    13      0.0000000000
    14      0.0000000000
    15      0.0000000000
    16      0.0000000000
    17      0.0000000000
    18     -0.0418143275
    19      0.1469719179
    20     -1.0538461208
    21     -0.1564523235
    22      0.0117091865
    23      0.0442930722
    24     -0.1556843827
    25      1.1163179002
    26      0.1657267848
    27     -0.0124033046
    28     -0.0000000000
    29     -0.0000000000
    30      0.0000000000
    31     -0.0000000000
    32      0.0000000000
    33      0.0000000000
    34     -0.0000000000
    35      0.0000000000
    36     -0.0000000000
    37     -0.0000000000
    38     -0.0000000000
Ene=      0.00000000
Spin= Alpha
Occup=  0.000660
     1     -0.0000000000
     2     -0.0000000000
     3     -0.0000000000
     4      0.0000000000
     5      0.0000000000
     6      0.0000000000
     7     -0.0000000000
     8      0.0000000000
     9      0.0000000000
    10     -0.0000000000
    11      0.0000000000
    12     -0.0000000000
    13      0.0000000000
    14     -0.0000000000
    15     -0.0000000000
    16      0.0000000000
    17     -0.0000000000
    18      0.0780872443
    19     -0.9944353826