[Molden Format]
[Atoms] AU
Ar      1  18     0.0000000     0.0000000     9.2919761
[GTO]
     1     0
s  13 1.0
  5.45000000E+05  4.55816851E-05
  8.16400000E+04  3.54099339E-04
  1.85800000E+04  1.85792456E-03
  5.26100000E+03  7.76831999E-03
  1.71700000E+03  2.74225293E-02
  6.19900000E+02  8.23815850E-02
  2.41600000E+02  2.01225078E-01
  9.97900000E+01  3.56772274E-01
  4.31500000E+01  3.49554450E-01
  1.91400000E+01  1.18263107E-01
  7.48800000E+00  5.60176299E-03
  3.20500000E+00  4.83461175E-04
  5.20400000E-01  2.92017857E-05
s  13 1.0
  5.45000000E+05 -1.38905279E-05
  8.16400000E+04 -1.07679442E-04
  1.85800000E+04 -5.67821742E-04
  5.26100000E+03 -2.37381982E-03
  1.71700000E+03 -8.54381497E-03
  6.19900000E+02 -2.63551299E-02
  2.41600000E+02 -7.05294555E-02
  9.97900000E+01 -1.47902155E-01
  4.31500000E+01 -2.16188771E-01
  1.91400000E+01 -4.42642836E-02
  7.48800000E+00  5.19676504E-01
  3.20500000E+00  6.21047089E-01
  5.20400000E-01 -7.80086241E-03
s  13 1.0
  5.45000000E+05  6.24207639E-06
  8.16400000E+04  4.83489267E-05
  1.85800000E+04  2.55308769E-04
  5.26100000E+03  1.06605275E-03
  1.71700000E+03  3.84999200E-03
  6.19900000E+02  1.18844979E-02
  2.41600000E+02  3.21689111E-02
  9.97900000E+01  6.84279475E-02
  4.31500000E+01  1.04842346E-01
  1.91400000E+01  2.17861552E-02
  7.48800000E+00 -3.19801029E-01
  3.20500000E+00 -6.55118240E-01
  5.20400000E-01  1.13073305E+00
s   1 1.0
  1.19600000E+00  1.00000000E+00
s   1 1.0
  1.95400000E-01  1.00000000E+00
p   7 1.0
  7.61800000E+02  2.43607294E-03
  1.80200000E+02  1.95521334E-02
  5.75000000E+01  9.05454602E-02
  2.12400000E+01  2.63551192E-01
  8.38800000E+00  4.50987440E-01
  3.41600000E+00  3.57295015E-01
  4.52300000E-01 -5.38541778E-03
p   7 1.0
  7.61800000E+02 -1.14159413E-03
  1.80200000E+02 -9.11475682E-03
  5.75000000E+01 -4.37148745E-02
  2.12400000E+01 -1.29555965E-01
  8.38800000E+00 -2.41477740E-01
  3.41600000E+00 -1.59596061E-01
  4.52300000E-01  9.62348672E-01
p   1 1.0
  1.20600000E+00  1.00000000E+00
p   1 1.0
  1.54500000E-01  1.00000000E+00
d   1 1.0
  4.10000000E-01  1.00000000E+00
d   1 1.0
  1.25400000E+00  1.00000000E+00
f   1 1.0
  8.90000000E-01  1.00000000E+00
s   1 1.0
  6.85000000E-02  1.00000000E+00
p   1 1.0
  4.87000000E-02  1.00000000E+00
 
 
[5D]
[MO]
Ene=      0.00000000
Spin= Alpha
Occup=  1.999998
     1      0.9994283024
     2      0.0322284857
     3     -0.0005695967
     4      0.0028234920
     5     -0.0003083909
     6      0.0000000000
     7     -0.0000000000
     8     -0.0000000000
     9     -0.0000000000
    10      0.0000000000
    11      0.0000000000
    12      0.0000000000
    13     -0.0000000000
    14     -0.0000000000
    15     -0.0000000000
    16      0.0000000000
    17      0.0000000000
    18     -0.0000000000
    19      0.0000000000
    20      0.0000000000
    21     -0.0000000000
    22      0.0000000000
    23      0.0000000000
    24     -0.0000000000
    25      0.0000000000
    26     -0.0000000000
    27     -0.0000000000
    28     -0.0000000000
    29      0.0000000000
    30      0.0000000000
    31      0.0000000000
    32      0.0000000000
    33     -0.0000000000
    34     -0.0000000000
    35     -0.0000127581
    36     -0.0000000000
    37      0.0000000000
    38      0.0000000000
Ene=      0.00000000
Spin= Alpha
Occup=  1.999614
     1     -0.0349339427
     2      0.9300370070
     3     -0.0155975089
     4      0.0881463510
     5     -0.0059390619
     6      0.0000000000
     7     -0.0000000000
     8     -0.0000000000
     9     -0.0000000000
    10      0.0000000000
    11      0.0000000000
    12      0.0000000000
    13     -0.0000000000
    14     -0.0000000000
    15     -0.0000000000
    16      0.0000000000
    17      0.0000000000
    18      0.0000000000
    19      0.0000000000
    20      0.0000000000
    21      0.0000000000
    22     -0.0000000000
    23      0.0000000000
    24     -0.0000000000
    25     -0.0000000000
    26      0.0000000000
    27      0.0000000000
    28      0.0000000000
    29     -0.0000000000
    30      0.0000000000
    31     -0.0000000000
    32      0.0000000000
    33      0.0000000000
    34     -0.0000000000
    35     -0.0007153229
    36     -0.0000000000
    37      0.0000000000
    38      0.0000000000
Ene=      0.00000000
Spin= Alpha
Occup=  1.999423
     1      0.0000000000
     2      0.0000000000
     3     -0.0000000000
     4      0.0000000000
     5     -0.0000000000
     6     -0.0066890890
     7      0.0098016799
     8      0.9705669395
     9      0.0001144325
    10     -0.0001676807
    11     -0.0166038179
    12     -0.0003587677
    13      0.0005257108
    14      0.0520561347
    15      0.0000399380
    16     -0.0000585221
    17     -0.0057948840
    18      0.0000000000
    19      0.0000000000
    20     -0.0000000000
    21      0.0000000000
    22      0.0000000000
    23      0.0000000000
    24     -0.0000000000
    25      0.0000000000
    26     -0.0000000000
    27     -0.0000000000
    28      0.0000000000
    29      0.0000000000
    30     -0.0000000000
    31     -0.0000000000
    32     -0.0000000000
    33      0.0000000000
    34     -0.0000000000
    35     -0.0000000000
    36      0.0000074906
    37     -0.0000109762
    38     -0.0010868639
Ene=      0.00000000
Spin= Alpha
Occup=  1.999423
     1      0.0000000000
     2      0.0000000000
     3     -0.0000000000
     4      0.0000000000
     5     -0.0000000000
     6     -0.1701703159
     7      0.9555448351
     8     -0.0108227765
     9      0.0029111613
    10     -0.0163468296
    11      0.0001851489
    12     -0.0091270458
    13      0.0512504275
    14     -0.0005804771
    15      0.0010160219
    16     -0.0057051928
    17      0.0000646187
    18      0.0000000000
    19     -0.0000000000
    20     -0.0000000000
    21      0.0000000000
    22      0.0000000000
    23      0.0000000000
    24     -0.0000000000
    25      0.0000000000
    26     -0.0000000000
    27     -0.0000000000
    28     -0.0000000000
    29      0.0000000000
    30     -0.0000000000
    31      0.0000000000
    32      0.0000000000
    33     -0.0000000000
    34      0.0000000000
    35     -0.0000000000
    36      0.0001905608
    37     -0.0010700418
    38      0.0000121196
Ene=      0.00000000
Spin= Alpha
Occup=  1.999423
     1      0.0000000000
     2      0.0000000000
     3     -0.0000000000
     4      0.0000000000
     5     -0.0000000000
     6     -0.9555827125
     7     -0.1702321826
     8     -0.0048666570
     9      0.0163474776
    10      0.0029122197
    11      0.0000832556
    12     -0.0512524591
    13     -0.0091303640
    14     -0.0002610220
    15      0.0057054190
    16      0.0010163913
    17      0.0000290569
    18      0.0000000000
    19      0.0000000000
    20     -0.0000000000
    21     -0.0000000000
    22     -0.0000000000
    23      0.0000000000
    24      0.0000000000
    25      0.0000000000
    26     -0.0000000000
    27     -0.0000000000
    28      0.0000000000
    29      0.0000000000
    30     -0.0000000000
    31      0.0000000000
    32     -0.0000000000
    33     -0.0000000000
    34      0.0000000000
    35     -0.0000000000
    36      0.0010700842
    37      0.0001906300
    38      0.0000054498
Ene=      0.00000000
Spin= Alpha
Occup=  1.982156
     1     -0.0000090882
     2     -0.0211245227
     3     -0.6528141921
     4     -0.0766925739
     5     -0.3843111993
     6     -0.0000000000
     7      0.0000000000
     8      0.0000000000
     9     -0.0000000000
    10     -0.0000000000
    11     -0.0000000000
    12     -0.0000000000
    13     -0.0000000000
    14     -0.0000000000
    15     -0.0000000000
    16     -0.0000000000
    17     -0.0000000000
    18      0.0000000000
    19      0.0000000000
    20      0.0000000000
    21      0.0000000000
    22      0.0000000000
    23      0.0000000000
    24     -0.0000000000
    25     -0.0000000000
    26     -0.0000000000
    27      0.0000000000
    28      0.0000000000
    29     -0.0000000000
    30     -0.0000000000
    31     -0.0000000000
    32     -0.0000000000
    33     -0.0000000000
    34     -0.0000000000
    35     -0.0066866538
    36      0.0000000000
    37     -0.0000000000
    38     -0.0000000000
Ene=      0.00000000
Spin= Alpha
Occup=  1.960219
     1      0.0000000000
     2      0.0000000000
     3      0.0000000000
     4      0.0000000000
     5      0.0000000000
     6     -0.0004078006
     7     -0.0011343973
     8     -0.0239833761
     9     -0.0099463329
    10     -0.0276681628
    11     -0.5849590637
    12     -0.0048660965
    13     -0.0135362401
    14     -0.2861825845
    15     -0.0053549656
    16     -0.0148961494
    17     -0.3149337265
    18     -0.0000000000
    19      0.0000000000
    20     -0.0000000000
    21      0.0000000000
    22     -0.0000000000
    23      0.0000000000
    24      0.0000000000
    25      0.0000000000
    26     -0.0000000000
    27     -0.0000000000
    28      0.0000000000
    29      0.0000000000
    30      0.0000000000
    31      0.0000000000
    32     -0.0000000000
    33      0.0000000000
    34      0.0000000000
    35      0.0000000000
    36     -0.0002047802
    37     -0.0005696464
    38     -0.0120434398
Ene=      0.00000000
Spin= Alpha
Occup=  1.960219
     1      0.0000000000
     2     -0.0000000000
     3      0.0000000000
     4      0.0000000000
     5      0.0000000000
     6     -0.0009813435
     7     -0.0239660041
     8      0.0011502618
     9     -0.0239351539
    10     -0.5845353562
    11      0.0280551024
    12     -0.0117099206
    13     -0.2859752919
    14      0.0137255446
    15     -0.0128863500
    16     -0.3147056083
    17      0.0151044722
    18     -0.0000000000
    19      0.0000000000
    20     -0.0000000000
    21     -0.0000000000
    22      0.0000000000
    23      0.0000000000
    24      0.0000000000
    25      0.0000000000
    26     -0.0000000000
    27     -0.0000000000
    28     -0.0000000000
    29      0.0000000000
    30      0.0000000000
    31     -0.0000000000
    32     -0.0000000000
    33      0.0000000000
    34     -0.0000000000
    35     -0.0000000000
    36     -0.0004927893
    37     -0.0120347162
    38      0.0005776130
Ene=      0.00000000
Spin= Alpha
Occup=  1.960219
     1     -0.0000000000
     2      0.0000000000
     3     -0.0000000000
     4     -0.0000000000
     5     -0.0000000000
     6      0.0239901261
     7     -0.0009996401
     8     -0.0003606331
     9      0.5851236979
    10     -0.0243814095
    11     -0.0087959083
    12      0.2862631294
    13     -0.0119282446
    14     -0.0043032682
    15      0.3150223632
    16     -0.0131266077
    17     -0.0047355932
    18      0.0000000000
    19     -0.0000000000
    20     -0.0000000000
    21      0.0000000000
    22      0.0000000000
    23      0.0000000000
    24      0.0000000000
    25      0.0000000000
    26      0.0000000000
    27     -0.0000000000
    28     -0.0000000000
    29      0.0000000000
    30     -0.0000000000
    31      0.0000000000
    32      0.0000000000
    33     -0.0000000000
    34      0.0000000000
    35     -0.0000000000
    36      0.0120468293
    37     -0.0005019771
    38     -0.0001810947
Ene=      0.00000000
Spin= Alpha
Occup=  0.018436
     1     -0.0000000000
     2     -0.0000000000
     3      0.0000000000
     4      0.0000000000
     5     -0.0000000000
     6     -0.0000000000
     7     -0.0000000000
     8      0.0000000000
     9     -0.0000000000
    10     -0.0000000000
    11     -0.0000000000
    12      0.0000000000
    13      0.0000000000
    14     -0.0000000000
    15      0.0000000000
    16     -0.0000000000
    17      0.0000000000
    18     -0.6223509151
    19     -0.0006249419
    20     -0.0019970405
    21      0.0002467258
    22      0.0000179048
    23     -0.4958761736
    24     -0.0004979406
    25     -0.0015912000
    26      0.0001965859
    27      0.0000142662
    28      0.0000000000
    29     -0.0000000000
    30     -0.0000000000
    31      0.0000000000
    32     -0.0000000000
    33     -0.0000000000
    34     -0.0000000000
    35      0.0000000000
    36     -0.0000000000
    37     -0.0000000000
    38      0.0000000000
Ene=      0.00000000
Spin= Alpha
Occup=  0.018436
     1     -0.0000000000
     2     -0.0000000000
     3     -0.0000000000
     4      0.0000000000
     5      0.0000000000
     6      0.0000000000
     7     -0.0000000000
     8      0.0000000000
     9      0.0000000000
    10     -0.0000000000
    11      0.0000000000
    12      0.0000000000
    13      0.0000000000
    14     -0.0000000000
    15     -0.0000000000
    16      0.0000000000
    17     -0.0000000000
    18     -0.0007687682
    19     -0.0271295052
    20      0.2748701437
    21      0.1786161088
    22      0.5283286763
    23     -0.0006125384
    24     -0.0216162215
    25      0.2190107732
    26      0.1423175743
    27      0.4209612231
    28      0.0000000000
    29      0.0000000000
    30     -0.0000000000
    31      0.0000000000
    32     -0.0000000000
    33     -0.0000000000
    34      0.0000000000
    35      0.0000000000
    36      0.0000000000
    37     -0.0000000000
    38      0.0000000000
Ene=      0.00000000
Spin= Alpha
Occup=  0.018436
     1     -0.0000000000
     2      0.0000000000
     3      0.0000000000
     4     -0.0000000000
     5     -0.0000000000
     6      0.0000000000
     7     -0.0000000000
     8      0.0000000000
     9      0.0000000000
    10     -0.0000000000
    11      0.0000000000
    12     -0.0000000000
    13     -0.0000000000
    14     -0.0000000000
    15      0.0000000000
    16      0.0000000000
    17     -0.0000000000
    18      0.0007313928
    19      0.0556298786
    20     -0.2978238111
    21     -0.4472602268
    22      0.3090131878
    23      0.0005827584
    24      0.0443247220
    25     -0.2372997745
    26     -0.3563675806
    27      0.2462152355
    28     -0.0000000000
    29     -0.0000000000
    30      0.0000000000
    31     -0.0000000000
    32     -0.0000000000
    33     -0.0000000000
    34      0.0000000000
    35     -0.0000000000
    36      0.0000000000
    37      0.0000000000
    38      0.0000000000
Ene=      0.00000000
Spin= Alpha
Occup=  0.018436
     1      0.0000000000
     2      0.0000000000
     3      0.0000000000
     4     -0.0000000000
     5     -0.0000000000
     6      0.0000000000
     7      0.0000000000
     8     -0.0000000000
     9      0.0000000000
    10      0.0000000000
    11     -0.0000000000
    12     -0.0000000000
    13     -0.0000000000
    14      0.0000000000
    15     -0.0000000000
    16     -0.0000000000
    17      0.0000000000
    18      0.0013531189
    19      0.1958241633
    20     -0.4342845233
    21      0.3863515660
    22      0.1053830530
    23      0.0010781368
    24      0.1560285916
    25     -0.3460288118
    26      0.3078368354
    27      0.0839670093
    28     -0.0000000000
    29     -0.0000000000
    30     -0.0000000000
    31     -0.0000000000
    32     -0.0000000000
    33     -0.0000000000
    34      0.0000000000
    35      0.0000000000
    36      0.0000000000
    37      0.0000000000
    38     -0.0000000000
Ene=      0.00000000
Spin= Alpha
Occup=  0.018436
     1      0.0000000000
     2      0.0000000000
     3      0.0000000000
     4     -0.0000000000
     5     -0.0000000000
     6     -0.0000000000
     7      0.0000000000
     8      0.0000000000
     9     -0.0000000000
    10      0.0000000000
    11      0.0000000000
    12      0.0000000000
    13     -0.0000000000
    14     -0.0000000000
    15     -0.0000000000
    16      0.0000000000
    17      0.0000000000
    18      0.0012178040
    19     -0.5874920549
    20     -0.1856487214
    21      0.0781798133
    22      0.0399896600
    23      0.0009703207
    24     -0.4681013639
    25     -0.1479210127
    26      0.0622920377
    27      0.0318629235
    28     -0.0000000000
    29     -0.0000000000
    30     -0.0000000000
    31     -0.0000000000
    32     -0.0000000000
    33     -0.0000000000
    34     -0.0000000000
    35     -0.0000000000
    36      0.0000000000
    37     -0.0000000000
    38     -0.0000000000
Ene=      0.00000000
Spin= Alpha
Occup=  0.008623
     1      0.0000000000
     2      0.0000000000
     3      0.0000000000
     4      0.0000000000
     5     -0.0000000000
     6      0.0138700105
     7     -0.3607563599
     8      0.0035532965
     9     -0.0039312879
    10      0.1022520575
    11     -0.0010071392
    12     -0.0348163992
    13      0.9055679849
    14     -0.0089194590
    15      0.0346752383
    16     -0.9018964169
    17      0.0088832956
    18      0.0000000000
    19     -0.0000000000
    20     -0.0000000000
    21     -0.0000000000
    22      0.0000000000
    23      0.0000000000
    24      0.0000000000
    25     -0.0000000000
    26      0.0000000000
    27     -0.0000000000
    28     -0.0000000000
    29     -0.0000000000
    30      0.0000000000
    31      0.0000000000
    32     -0.0000000000
    33      0.0000000000
    34      0.0000000000
    35      0.0000000000
    36      0.0005898982
    37     -0.0153431421
    38      0.0001511234
Ene=      0.00000000
Spin= Alpha
Occup=  0.008623
     1      0.0000000000
     2      0.0000000000
     3      0.0000000000
     4     -0.0000000000
     5     -0.0000000000
     6     -0.3607738580
     7     -0.0138691247
     8      0.0001582304
     9      0.1022570172
    10      0.0039310368
    11     -0.0000448485
    12      0.9056119086
    13      0.0348141758
    14     -0.0003971889
    15     -0.9019401626
    16     -0.0346730239
    17      0.0003955785
    18      0.0000000000
    19      0.0000000000
    20     -0.0000000000
    21     -0.0000000000
    22      0.0000000000
    23      0.0000000000
    24     -0.0000000000
    25      0.0000000000
    26      0.0000000000
    27     -0.0000000000
    28     -0.0000000000
    29      0.0000000000
    30     -0.0000000000
    31      0.0000000000
    32     -0.0000000000
    33      0.0000000000
    34     -0.0000000000
    35     -0.0000000000
    36     -0.0153438863
    37     -0.0005898606
    38      0.0000067296
Ene=      0.00000000
Spin= Alpha
Occup=  0.008623
     1      0.0000000000
     2      0.0000000000
     3     -0.0000000000
     4     -0.0000000000
     5      0.0000000000
     6     -0.0000216084
     7     -0.0035567522
     8     -0.3610228571
     9      0.0000061247
    10      0.0010081187
    11      0.1023275930
    12      0.0000542414
    13      0.0089281334
    14      0.9062369443
    15     -0.0000540215
    16     -0.0088919348
    17     -0.9025626640
    18     -0.0000000000
    19     -0.0000000000
    20     -0.0000000000
    21     -0.0000000000
    22      0.0000000000
    23     -0.0000000000
    24      0.0000000000
    25     -0.0000000000
    26      0.0000000000
    27     -0.0000000000
    28     -0.0000000000
    29     -0.0000000000
    30      0.0000000000
    31     -0.0000000000
    32     -0.0000000000
    33      0.0000000000
    34      0.0000000000
    35     -0.0000000000
    36     -0.0000009190
    37     -0.0001512704
    38     -0.0153544764
Ene=      0.00000000
Spin= Alpha
Occup=  0.006623
     1     -0.0651163323
     2     -0.1317360451
     3      0.8720022971
     4      1.0556618976
     5     -1.5516034821
     6     -0.0000000000
     7      0.0000000000
     8     -0.0000000000
     9     -0.0000000000
    10     -0.0000000000
    11      0.0000000000
    12     -0.0000000000
    13     -0.0000000000
    14      0.0000000000
    15      0.0000000000
    16      0.0000000000
    17     -0.0000000000
    18      0.0000000000
    19      0.0000000000
    20     -0.0000000000
    21     -0.0000000000
    22     -0.0000000000
    23      0.0000000000
    24     -0.0000000000
    25      0.0000000000
    26     -0.0000000000
    27      0.0000000000
    28      0.0000000000
    29      0.0000000000
    30     -0.0000000000
    31     -0.0000000000
    32     -0.0000000000
    33      0.0000000000
    34     -0.0000000000
    35      0.0365790754
    36     -0.0000000000
    37      0.0000000000
    38     -0.0000000000
Ene=      0.00000000
Spin= Alpha
Occup=  0.001257
     1     -0.0000000000
     2     -0.0000000000
     3     -0.0000000000
     4      0.0000000000
     5      0.0000000000
     6      0.0000000000
     7      0.0000000000
     8      0.0000000000
     9      0.0000000000
    10      0.0000000000
    11      0.0000000000
    12     -0.0000000000
    13     -0.0000000000
    14     -0.0000000000
    15     -0.0000000000
    16     -0.0000000000
    17     -0.0000000000
    18     -0.0000000000
    19      0.0000000000
    20     -0.0000000000
    21     -0.0000000000
    22      0.0000000000
    23      0.0000000000
    24     -0.0000000000
    25      0.0000000000
    26      0.0000000000
    27     -0.0000000000
    28      0.8537750190
    29      0.0183003336
    30      0.3300180775
    31     -0.0126340123
    32     -0.0258545885
    33      0.4000737746
    34     -0.0305659967
    35     -0.0000000000
    36     -0.0000000000
    37      0.0000000000
    38      0.0000000000
Ene=      0.00000000
Spin= Alpha
Occup=  0.001257
     1     -0.0000000000
     2     -0.0000000000
     3     -0.0000000000
     4      0.0000000000
     5      0.0000000000
     6     -0.0000000000
     7     -0.0000000000
     8      0.0000000000
     9     -0.0000000000
    10     -0.0000000000
    11      0.0000000000
    12      0.0000000000
    13      0.0000000000
    14     -0.0000000000
    15      0.0000000000
    16      0.0000000000
    17     -0.0000000000
    18      0.0000000000
    19     -0.0000000000
    20     -0.0000000000
    21     -0.0000000000
    22      0.0000000000
    23     -0.0000000000
    24      0.0000000000
    25     -0.0000000000
    26      0.0000000000
    27     -0.0000000000
    28      0.5157490810
    29     -0.0055593168
    30     -0.4898981985
    31      0.0118430657
    32     -0.0451756123
    33     -0.7007955405
    34     -0.0260048233
    35     -0.0000000000
    36     -0.0000000000
    37     -0.0000000000
    38     -0.0000000000
Ene=      0.00000000
Spin= Alpha
Occup=  0.001257
     1      0.0000000000
     2      0.0000000000
     3      0.0000000000
     4     -0.0000000000
     5     -0.0000000000
     6      0.0000000000
     7      0.0000000000
     8      0.0000000000
     9      0.0000000000
    10      0.0000000000
    11      0.0000000000
    12     -0.0000000000
    13     -0.0000000000
    14     -0.0000000000
    15     -0.0000000000
    16     -0.0000000000
    17     -0.0000000000
    18      0.0000000000
    19     -0.0000000000
    20      0.0000000000
    21     -0.0000000000
    22      0.0000000000
    23     -0.0000000000
    24      0.0000000000
    25     -0.0000000000
    26      0.0000000000
    27     -0.0000000000
    28      0.0153883280
    29     -0.0120177084
    30     -0.7485635914
    31      0.1006941999
    32     -0.3279512219
    33      0.5607011927
    34     -0.0848184555
    35      0.0000000000
    36      0.0000000000
    37      0.0000000000
    38     -0.0000000000
Ene=      0.00000000
Spin= Alpha
Occup=  0.001257
     1      0.0000000000
     2      0.0000000000
     3      0.0000000000
     4     -0.0000000000
     5     -0.0000000000
     6     -0.0000000000
     7     -0.0000000000
     8      0.0000000000
     9     -0.0000000000
    10     -0.0000000000
    11      0.0000000000
    12      0.0000000000
    13      0.0000000000
    14     -0.0000000000
    15     -0.0000000000
    16      0.0000000000
    17     -0.0000000000
    18      0.0000000000
    19      0.0000000000
    20      0.0000000000
    21      0.0000000000
    22      0.0000000000
    23     -0.0000000000
    24     -0.0000000000
    25     -0.0000000000
    26     -0.0000000000
    27     -0.0000000000
    28      0.0116071582
    29     -0.9952149747
    30      0.0170831787
    31     -0.0876338300
    32     -0.0285452968
    33      0.0039372466
    34      0.0247096927
    35      0.0000000000
    36      0.0000000000
    37     -0.0000000000
    38      0.0000000000
Ene=      0.00000000
Spin= Alpha
Occup=  0.001257
     1     -0.0000000000
     2     -0.0000000000
     3     -0.0000000000
     4      0.0000000000
     5      0.0000000000
     6     -0.0000000000
     7      0.0000000000
     8      0.0000000000
     9     -0.0000000000
    10      0.0000000000
    11     -0.0000000000
    12      0.0000000000
    13     -0.0000000000
    14      0.0000000000
    15      0.0000000000
    16     -0.0000000000
    17      0.0000000000
    18     -0.0000000000
    19     -0.0000000000
    20     -0.0000000000
    21     -0.0000000000
    22     -0.0000000000
    23      0.0000000000
    24      0.0000000000
    25      0.0000000000
    26      0.0000000000
    27      0.0000000000
    28      0.0132854956
    29     -0.0670251539
    30      0.0848804989
    31      0.9124715214
    32     -0.0823397180
    33     -0.0425233357
    34      0.3833198204
    35     -0.0000000000
    36     -0.0000000000
    37      0.0000000000
    38      0.0000000000
Ene=      0.00000000
Spin= Alpha
Occup=  0.001257
     1     -0.0000000000
     2     -0.0000000000
     3     -0.0000000000
     4      0.0000000000
     5      0.0000000000
     6      0.0000000000
     7      0.0000000000
     8     -0.0000000000
     9      0.0000000000
    10      0.0000000000
    11     -0.0000000000
    12     -0.0000000000
    13     -0.0000000000
    14      0.0000000000
    15     -0.0000000000
    16     -0.0000000000
    17      0.0000000000
    18     -0.0000000000
    19     -0.0000000000
    20     -0.0000000000
    21      0.0000000000
    22      0.0000000000
    23      0.0000000000
    24      0.0000000000
    25      0.0000000000
    26     -0.0000000000
    27     -0.0000000000
    28     -0.0300955532
    29     -0.0593960804
    30      0.0675496048
    31      0.3819117100
    32      0.1348545574
    33     -0.0374218057
    34     -0.9086037182
    35     -0.0000000000
    36      0.0000000000
    37      0.0000000000
    38     -0.0000000000
Ene=      0.00000000
Spin= Alpha
Occup=  0.001257
     1     -0.0000000000
     2     -0.0000000000
     3     -0.0000000000
     4      0.0000000000
     5      0.0000000000
     6      0.0000000000
     7      0.0000000000
     8      0.0000000000
     9      0.0000000000
    10      0.0000000000
    11      0.0000000000
    12     -0.0000000000
    13     -0.0000000000
    14      0.0000000000
    15     -0.0000000000
    16     -0.0000000000
    17     -0.0000000000
    18      0.0000000000
    19      0.0000000000
    20     -0.0000000000
    21      0.0000000000
    22      0.0000000000
    23     -0.0000000000
    24     -0.0000000000
    25      0.0000000000
    26     -0.0000000000
    27      0.0000000000
    28      0.0601442352
    29     -0.0318850267
    30     -0.2805011410
    31      0.0584831763
    32      0.9294935640
    33      0.1766822862
    34      0.1344988038
    35     -0.0000000000
    36      0.0000000000
    37      0.0000000000
    38     -0.0000000000
Ene=      0.00000000
Spin= Alpha
Occup=  0.000660
     1      0.0000000000
     2      0.0000000000
     3      0.0000000000
     4     -0.0000000000
     5     -0.0000000000
     6      0.0000000000
     7      0.0000000000
     8     -0.0000000000
     9      0.0000000000
    10      0.0000000000
    11     -0.0000000000
    12     -0.0000000000
    13     -0.0000000000
    14      0.0000000000
    15     -0.0000000000
    16     -0.0000000000
    17      0.0000000000
    18     -0.0332778842
    19      0.4175671763
    20      0.7097838051
    21      0.4149534289
    22      0.5541715448
    23      0.0352505902
    24     -0.4423204718
    25     -0.7518596418
    26     -0.4395517821
    27     -0.5870227190
    28      0.0000000000
    29      0.0000000000
    30      0.0000000000
    31      0.0000000000
    32     -0.0000000000
    33     -0.0000000000
    34      0.0000000000
    35     -0.0000000000
    36      0.0000000000
    37      0.0000000000
    38     -0.0000000000
Ene=      0.00000000
Spin= Alpha
Occup=  0.000660
     1     -0.0000000000
     2     -0.0000000000
     3     -0.0000000000
     4      0.0000000000
     5      0.0000000000
     6     -0.0000000000
     7     -0.0000000000
     8     -0.0000000000
     9     -0.0000000000
    10     -0.0000000000
    11     -0.0000000000
    12      0.0000000000
    13      0.0000000000
    14      0.0000000000
    15      0.0000000000
    16      0.0000000000
    17      0.0000000000
    18     -1.0725725471
    19      0.0005420598