Generated by Psi4
     FORCE                          CCSD                   MAY-CC-PVTZ
Number of atoms                            I                1
Charge                                     I                0
Multiplicity                               I                1
Number of electrons                        I               18
Number of alpha electrons                  I                9
Number of beta electrons                   I                9
Number of basis functions                  I               38
Number of independent functions            I               38
Atomic numbers                             I   N=           1
          18
Nuclear charges                            R   N=           1
  1.80000000e+01
Current cartesian coordinates              R   N=           3
  0.00000000e+00  0.00000000e+00  9.29197615e+00
Integer atomic weights                     I   N=           1
          39
Real atomic weights                        R   N=           1
  3.99623831e+01
Number of primitive shells                 I               62
Number of contracted shells                I               14
Pure/Cartesian d shells                    I                0
Pure/Cartesian f shells                    I                0
Highest angular momentum                   I                3
Largest degree of contraction              I               13
Shell types                                I   N=          14
           0           0           0           0           0           1
           1           1           1          -2          -2          -3
           0           1
Number of primitives per shell             I   N=          14
          13          13          13           1           1           7
           7           1           1           1           1           1
           1           1
Shell to atom map                          I   N=          14
           1           1           1           1           1           1
           1           1           1           1           1           1
           1           1
Primitive exponents                        R   N=          62
  5.45000000e+05  8.16400000e+04  1.85800000e+04  5.26100000e+03  1.71700000e+03
  6.19900000e+02  2.41600000e+02  9.97900000e+01  4.31500000e+01  1.91400000e+01
  7.48800000e+00  3.20500000e+00  5.20400000e-01  5.45000000e+05  8.16400000e+04
  1.85800000e+04  5.26100000e+03  1.71700000e+03  6.19900000e+02  2.41600000e+02
  9.97900000e+01  4.31500000e+01  1.91400000e+01  7.48800000e+00  3.20500000e+00
  5.20400000e-01  5.45000000e+05  8.16400000e+04  1.85800000e+04  5.26100000e+03
  1.71700000e+03  6.19900000e+02  2.41600000e+02  9.97900000e+01  4.31500000e+01
  1.91400000e+01  7.48800000e+00  3.20500000e+00  5.20400000e-01  1.19600000e+00
  1.95400000e-01  7.61800000e+02  1.80200000e+02  5.75000000e+01  2.12400000e+01
  8.38800000e+00  3.41600000e+00  4.52300000e-01  7.61800000e+02  1.80200000e+02
  5.75000000e+01  2.12400000e+01  8.38800000e+00  3.41600000e+00  4.52300000e-01
  1.20600000e+00  1.54500000e-01  4.10000000e-01  1.25400000e+00  8.90000000e-01
  6.85000000e-02  4.87000000e-02
Contraction coefficients                   R   N=          62
  4.55816851e-05  3.54099339e-04  1.85792456e-03  7.76831999e-03  2.74225293e-02
  8.23815850e-02  2.01225078e-01  3.56772274e-01  3.49554450e-01  1.18263107e-01
  5.60176299e-03  4.83461175e-04  2.92017857e-05 -1.38905279e-05 -1.07679442e-04
 -5.67821742e-04 -2.37381982e-03 -8.54381497e-03 -2.63551299e-02 -7.05294555e-02
 -1.47902155e-01 -2.16188771e-01 -4.42642836e-02  5.19676504e-01  6.21047089e-01
 -7.80086241e-03  6.24207639e-06  4.83489267e-05  2.55308769e-04  1.06605275e-03
  3.84999200e-03  1.18844979e-02  3.21689111e-02  6.84279475e-02  1.04842346e-01
  2.17861552e-02 -3.19801029e-01 -6.55118240e-01  1.13073305e+00  1.00000000e+00
  1.00000000e+00  2.43607294e-03  1.95521334e-02  9.05454602e-02  2.63551192e-01
  4.50987440e-01  3.57295015e-01 -5.38541778e-03 -1.14159413e-03 -9.11475682e-03
 -4.37148745e-02 -1.29555965e-01 -2.41477740e-01 -1.59596061e-01  9.62348672e-01
  1.00000000e+00  1.00000000e+00  1.00000000e+00  1.00000000e+00  1.00000000e+00
  1.00000000e+00  1.00000000e+00
Coordinates of each shell                  R   N=          42
  0.00000000e+00  0.00000000e+00  9.29197615e+00  0.00000000e+00  0.00000000e+00
  9.29197615e+00  0.00000000e+00  0.00000000e+00  9.29197615e+00  0.00000000e+00
  0.00000000e+00  9.29197615e+00  0.00000000e+00  0.00000000e+00  9.29197615e+00
  0.00000000e+00  0.00000000e+00  9.29197615e+00  0.00000000e+00  0.00000000e+00
  9.29197615e+00  0.00000000e+00  0.00000000e+00  9.29197615e+00  0.00000000e+00
  0.00000000e+00  9.29197615e+00  0.00000000e+00  0.00000000e+00  9.29197615e+00
  0.00000000e+00  0.00000000e+00  9.29197615e+00  0.00000000e+00  0.00000000e+00
  9.29197615e+00  0.00000000e+00  0.00000000e+00  9.29197615e+00  0.00000000e+00
  0.00000000e+00  9.29197615e+00
Total Energy                               R     -5.270673567304676e+02
alpha orbital energies                     R   N=          38
 -1.18612070e+02 -1.23231643e+01 -9.57213595e+00 -9.57213595e+00 -9.57213595e+00
 -1.27788683e+00 -5.91367008e-01 -5.91367008e-01 -5.91367008e-01  1.29759801e-01
  1.29759801e-01  1.29759801e-01  1.45354313e-01  7.10216123e-01  7.10216123e-01
  7.10216123e-01  7.27626139e-01  7.27626139e-01  7.27626139e-01  7.27626139e-01
  7.27626139e-01  1.06540280e+00  2.54582192e+00  2.54582192e+00  2.54582192e+00
  2.54582192e+00  2.54582192e+00  2.92294720e+00  2.92294720e+00  2.92294720e+00
  2.92294720e+00  2.92294720e+00  2.92294720e+00  2.92294720e+00  3.03684261e+00
  3.03684261e+00  3.03684261e+00  6.01212077e+00
alpha MO coefficients (C)                  R   N=        1444
  1.00002500e+00  5.09471902e-06  7.31654816e-06 -1.50332260e-04 -3.42273067e-05
  0.00000000e+00  0.00000000e+00  0.00000000e+00  0.00000000e+00  0.00000000e+00
  0.00000000e+00  0.00000000e+00  0.00000000e+00  0.00000000e+00  0.00000000e+00
  0.00000000e+00  0.00000000e+00  0.00000000e+00  0.00000000e+00  0.00000000e+00
  0.00000000e+00  0.00000000e+00  0.00000000e+00  0.00000000e+00  0.00000000e+00
  0.00000000e+00  0.00000000e+00  0.00000000e+00  0.00000000e+00  0.00000000e+00
  0.00000000e+00  0.00000000e+00  0.00000000e+00  0.00000000e+00  7.08648152e-06
  0.00000000e+00  0.00000000e+00  0.00000000e+00 -9.96610576e-05  9.32104995e-01
 -6.41813444e-04  8.81428907e-02  3.29725494e-03  0.00000000e+00  0.00000000e+00
  0.00000000e+00  0.00000000e+00  0.00000000e+00  0.00000000e+00  0.00000000e+00
  0.00000000e+00  0.00000000e+00  0.00000000e+00  0.00000000e+00  0.00000000e+00
  0.00000000e+00  0.00000000e+00  0.00000000e+00  0.00000000e+00  0.00000000e+00
  0.00000000e+00  0.00000000e+00  0.00000000e+00  0.00000000e+00  0.00000000e+00
  0.00000000e+00  0.00000000e+00  0.00000000e+00  0.00000000e+00  0.00000000e+00
  0.00000000e+00  0.00000000e+00 -6.31634364e-04  0.00000000e+00  0.00000000e+00
  0.00000000e+00  0.00000000e+00  0.00000000e+00  0.00000000e+00  0.00000000e+00
  0.00000000e+00  9.72529157e-01  0.00000000e+00  0.00000000e+00 -4.57478709e-04
  0.00000000e+00  0.00000000e+00  5.68362994e-02  0.00000000e+00  0.00000000e+00
  2.35238662e-03  0.00000000e+00  0.00000000e+00  0.00000000e+00  0.00000000e+00
  0.00000000e+00  0.00000000e+00  0.00000000e+00  0.00000000e+00  0.00000000e+00
  0.00000000e+00  0.00000000e+00  0.00000000e+00  0.00000000e+00  0.00000000e+00
  0.00000000e+00  0.00000000e+00  0.00000000e+00  0.00000000e+00  0.00000000e+00
  0.00000000e+00 -6.76562780e-04  0.00000000e+00  0.00000000e+00  0.00000000e+00
  0.00000000e+00  0.00000000e+00  0.00000000e+00  0.00000000e+00  0.00000000e+00
  0.00000000e+00  9.72529157e-01  0.00000000e+00  0.00000000e+00 -4.57478709e-04
  0.00000000e+00  0.00000000e+00  5.68362994e-02  0.00000000e+00  0.00000000e+00
  2.35238662e-03  0.00000000e+00  0.00000000e+00  0.00000000e+00  0.00000000e+00
  0.00000000e+00  0.00000000e+00  0.00000000e+00  0.00000000e+00  0.00000000e+00
  0.00000000e+00  0.00000000e+00  0.00000000e+00  0.00000000e+00  0.00000000e+00
  0.00000000e+00  0.00000000e+00  0.00000000e+00  0.00000000e+00  0.00000000e+00
  0.00000000e+00 -6.76562780e-04  0.00000000e+00  0.00000000e+00  0.00000000e+00
  0.00000000e+00  0.00000000e+00  0.00000000e+00  9.72529157e-01  0.00000000e+00
  0.00000000e+00 -4.57478709e-04  0.00000000e+00  0.00000000e+00  5.68362994e-02
  0.00000000e+00  0.00000000e+00  2.35238662e-03  0.00000000e+00  0.00000000e+00
  0.00000000e+00  0.00000000e+00  0.00000000e+00  0.00000000e+00  0.00000000e+00
  0.00000000e+00  0.00000000e+00  0.00000000e+00  0.00000000e+00  0.00000000e+00
  0.00000000e+00  0.00000000e+00  0.00000000e+00  0.00000000e+00  0.00000000e+00
  0.00000000e+00  0.00000000e+00  0.00000000e+00 -6.76562780e-04  0.00000000e+00
  4.15022897e-04  2.41126937e-03  6.51841023e-01  6.99513518e-02  3.89784082e-01
  0.00000000e+00  0.00000000e+00  0.00000000e+00  0.00000000e+00  0.00000000e+00
  0.00000000e+00  0.00000000e+00  0.00000000e+00  0.00000000e+00  0.00000000e+00
  0.00000000e+00  0.00000000e+00  0.00000000e+00  0.00000000e+00  0.00000000e+00
  0.00000000e+00  0.00000000e+00  0.00000000e+00  0.00000000e+00  0.00000000e+00
  0.00000000e+00  0.00000000e+00  0.00000000e+00  0.00000000e+00  0.00000000e+00
  0.00000000e+00  0.00000000e+00  0.00000000e+00  0.00000000e+00  4.71521740e-03
  0.00000000e+00  0.00000000e+00  0.00000000e+00  0.00000000e+00  0.00000000e+00
  0.00000000e+00  0.00000000e+00  0.00000000e+00  0.00000000e+00  0.00000000e+00
  1.89259131e-03  0.00000000e+00  0.00000000e+00  5.87884741e-01  0.00000000e+00
  0.00000000e+00  2.81857168e-01  0.00000000e+00  0.00000000e+00  3.16713611e-01
  0.00000000e+00  0.00000000e+00  0.00000000e+00  0.00000000e+00  0.00000000e+00
  0.00000000e+00  0.00000000e+00  0.00000000e+00  0.00000000e+00  0.00000000e+00
  0.00000000e+00  0.00000000e+00  0.00000000e+00  0.00000000e+00  0.00000000e+00
  0.00000000e+00  0.00000000e+00  0.00000000e+00  0.00000000e+00  0.00000000e+00
  1.06431207e-02  0.00000000e+00  0.00000000e+00  0.00000000e+00  0.00000000e+00
  0.00000000e+00  0.00000000e+00  1.89259131e-03  0.00000000e+00  0.00000000e+00
  5.87884741e-01  0.00000000e+00  0.00000000e+00  2.81857168e-01  0.00000000e+00
  0.00000000e+00  3.16713611e-01  0.00000000e+00  0.00000000e+00  0.00000000e+00
  0.00000000e+00  0.00000000e+00  0.00000000e+00  0.00000000e+00  0.00000000e+00
  0.00000000e+00  0.00000000e+00  0.00000000e+00  0.00000000e+00  0.00000000e+00
  0.00000000e+00  0.00000000e+00  0.00000000e+00  0.00000000e+00  0.00000000e+00
  0.00000000e+00  0.00000000e+00  1.06431207e-02  0.00000000e+00  0.00000000e+00
  0.00000000e+00  0.00000000e+00  0.00000000e+00  0.00000000e+00  1.89259131e-03
  0.00000000e+00  0.00000000e+00  5.87884741e-01  0.00000000e+00  0.00000000e+00
  2.81857168e-01  0.00000000e+00  0.00000000e+00  3.16713611e-01  0.00000000e+00
  0.00000000e+00  0.00000000e+00  0.00000000e+00  0.00000000e+00  0.00000000e+00
  0.00000000e+00  0.00000000e+00  0.00000000e+00  0.00000000e+00  0.00000000e+00
  0.00000000e+00  0.00000000e+00  0.00000000e+00  0.00000000e+00  0.00000000e+00
  0.00000000e+00  0.00000000e+00  0.00000000e+00  0.00000000e+00  1.06431207e-02
  0.00000000e+00  0.00000000e+00  0.00000000e+00  0.00000000e+00  0.00000000e+00
  0.00000000e+00  0.00000000e+00  5.91700629e-02  0.00000000e+00  0.00000000e+00
 -1.71285327e-02  0.00000000e+00  0.00000000e+00 -9.94389054e-02  0.00000000e+00
  0.00000000e+00 -5.23203451e-01  0.00000000e+00  0.00000000e+00  0.00000000e+00
  0.00000000e+00  0.00000000e+00  0.00000000e+00  0.00000000e+00  0.00000000e+00
  0.00000000e+00  0.00000000e+00  0.00000000e+00  0.00000000e+00  0.00000000e+00
  0.00000000e+00  0.00000000e+00  0.00000000e+00  0.00000000e+00  0.00000000e+00
  0.00000000e+00  0.00000000e+00  1.26359183e+00  0.00000000e+00  0.00000000e+00
  0.00000000e+00  0.00000000e+00  0.00000000e+00  0.00000000e+00  0.00000000e+00
  0.00000000e+00  0.00000000e+00  5.91700629e-02  0.00000000e+00  0.00000000e+00
 -1.71285327e-02  0.00000000e+00  0.00000000e+00 -9.94389054e-02  0.00000000e+00
  0.00000000e+00 -5.23203451e-01  0.00000000e+00  0.00000000e+00  0.00000000e+00
  0.00000000e+00  0.00000000e+00  0.00000000e+00  0.00000000e+00  0.00000000e+00
  0.00000000e+00  0.00000000e+00  0.00000000e+00  0.00000000e+00  0.00000000e+00
  0.00000000e+00  0.00000000e+00  0.00000000e+00  0.00000000e+00  0.00000000e+00
  0.00000000e+00  0.00000000e+00  1.26359183e+00  0.00000000e+00  0.00000000e+00
  0.00000000e+00  0.00000000e+00  0.00000000e+00  0.00000000e+00  5.91700629e-02
  0.00000000e+00  0.00000000e+00 -1.71285327e-02  0.00000000e+00  0.00000000e+00
 -9.94389054e-02  0.00000000e+00  0.00000000e+00 -5.23203451e-01  0.00000000e+00
  0.00000000e+00  0.00000000e+00  0.00000000e+00  0.00000000e+00  0.00000000e+00
  0.00000000e+00  0.00000000e+00  0.00000000e+00  0.00000000e+00  0.00000000e+00
  0.00000000e+00  0.00000000e+00  0.00000000e+00  0.00000000e+00  0.00000000e+00
  0.00000000e+00  0.00000000e+00  0.00000000e+00  0.00000000e+00  1.26359183e+00
  0.00000000e+00  3.01501509e-02  1.64775159e-01  1.47307646e-02 -5.80679274e-02
 -1.22424369e+00  0.00000000e+00  0.00000000e+00  0.00000000e+00  0.00000000e+00
  0.00000000e+00  0.00000000e+00  0.00000000e+00  0.00000000e+00  0.00000000e+00
  0.00000000e+00  0.00000000e+00  0.00000000e+00  0.00000000e+00  0.00000000e+00
  0.00000000e+00  0.00000000e+00  0.00000000e+00  0.00000000e+00  0.00000000e+00
  0.00000000e+00  0.00000000e+00  0.00000000e+00  0.00000000e+00  0.00000000e+00
  0.00000000e+00  0.00000000e+00  0.00000000e+00  0.00000000e+00  0.00000000e+00
  1.72159250e+00  0.00000000e+00  0.00000000e+00  0.00000000e+00  0.00000000e+00
  0.00000000e+00  0.00000000e+00  0.00000000e+00  0.00000000e+00  0.00000000e+00
  0.00000000e+00  4.65052930e-01  0.00000000e+00  0.00000000e+00  1.29503828e+00
  0.00000000e+00  0.00000000e+00  5.22719883e-02  0.00000000e+00  0.00000000e+00
 -1.92889749e+00  0.00000000e+00  0.00000000e+00  0.00000000e+00  0.00000000e+00
  0.00000000e+00  0.00000000e+00  0.00000000e+00  0.00000000e+00  0.00000000e+00
  0.00000000e+00  0.00000000e+00  0.00000000e+00  0.00000000e+00  0.00000000e+00
  0.00000000e+00  0.00000000e+00  0.00000000e+00  0.00000000e+00  0.00000000e+00
  0.00000000e+00  7.77956224e-01  0.00000000e+00  0.00000000e+00  0.00000000e+00
  0.00000000e+00  0.00000000e+00  0.00000000e+00  4.65052930e-01  0.00000000e+00
  0.00000000e+00  1.29503828e+00  0.00000000e+00  0.00000000e+00  5.22719883e-02
  0.00000000e+00  0.00000000e+00 -1.92889749e+00  0.00000000e+00  0.00000000e+00
  0.00000000e+00  0.00000000e+00  0.00000000e+00  0.00000000e+00  0.00000000e+00
  0.00000000e+00  0.00000000e+00  0.00000000e+00  0.00000000e+00  0.00000000e+00
  0.00000000e+00  0.00000000e+00  0.00000000e+00  0.00000000e+00  0.00000000e+00
  0.00000000e+00  0.00000000e+00  0.00000000e+00  7.77956224e-01  0.00000000e+00
  0.00000000e+00  0.00000000e+00  0.00000000e+00  0.00000000e+00  0.00000000e+00
  4.65052930e-01  0.00000000e+00  0.00000000e+00  1.29503828e+00  0.00000000e+00
  0.00000000e+00  5.22719883e-02  0.00000000e+00  0.00000000e+00 -1.92889749e+00
  0.00000000e+00  0.00000000e+00  0.00000000e+00  0.00000000e+00  0.00000000e+00
  0.00000000e+00  0.00000000e+00  0.00000000e+00  0.00000000e+00  0.00000000e+00
  0.00000000e+00  0.00000000e+00  0.00000000e+00  0.00000000e+00  0.00000000e+00
  0.00000000e+00  0.00000000e+00  0.00000000e+00  0.00000000e+00  0.00000000e+00
  7.77956224e-01  0.00000000e+00  0.00000000e+00  0.00000000e+00  0.00000000e+00
  0.00000000e+00  0.00000000e+00  0.00000000e+00  0.00000000e+00  0.00000000e+00
  0.00000000e+00  0.00000000e+00  0.00000000e+00  0.00000000e+00  0.00000000e+00
  0.00000000e+00  0.00000000e+00  0.00000000e+00  0.00000000e+00  0.00000000e+00
  6.74564649e-01  0.00000000e+00  0.00000000e+00  5.53164196e-01  0.00000000e+00
  1.50119355e-01  0.00000000e+00  0.00000000e+00  1.23102585e-01  0.00000000e+00
  0.00000000e+00  0.00000000e+00  0.00000000e+00  0.00000000e+00  0.00000000e+00
  0.00000000e+00  0.00000000e+00  0.00000000e+00  0.00000000e+00  0.00000000e+00
  0.00000000e+00  0.00000000e+00  0.00000000e+00  0.00000000e+00  0.00000000e+00
  0.00000000e+00  0.00000000e+00  0.00000000e+00  0.00000000e+00  0.00000000e+00
  0.00000000e+00  0.00000000e+00  0.00000000e+00  0.00000000e+00  0.00000000e+00
  0.00000000e+00  0.00000000e+00  0.00000000e+00  0.00000000e+00  8.72369241e-01
  0.00000000e+00  0.00000000e+00  0.00000000e+00  0.00000000e+00  1.94139299e-01
  0.00000000e+00  0.00000000e+00  0.00000000e+00  0.00000000e+00  0.00000000e+00
  0.00000000e+00  0.00000000e+00  0.00000000e+00  0.00000000e+00  0.00000000e+00
  0.00000000e+00  0.00000000e+00  0.00000000e+00  0.00000000e+00  0.00000000e+00
  0.00000000e+00  0.00000000e+00  0.00000000e+00  0.00000000e+00  0.00000000e+00
  0.00000000e+00  0.00000000e+00  0.00000000e+00  0.00000000e+00  0.00000000e+00
  0.00000000e+00  0.00000000e+00  0.00000000e+00  0.00000000e+00  0.00000000e+00
  0.00000000e+00  5.53164196e-01  0.00000000e+00  0.00000000e+00 -6.74564649e-01
  0.00000000e+00  1.23102585e-01  0.00000000e+00  0.00000000e+00 -1.50119355e-01
  0.00000000e+00  0.00000000e+00  0.00000000e+00  0.00000000e+00  0.00000000e+00
  0.00000000e+00  0.00000000e+00  0.00000000e+00  0.00000000e+00  0.00000000e+00
  0.00000000e+00  0.00000000e+00  0.00000000e+00  0.00000000e+00  0.00000000e+00
  0.00000000e+00  0.00000000e+00  0.00000000e+00  0.00000000e+00  0.00000000e+00
  0.00000000e+00  0.00000000e+00  0.00000000e+00  0.00000000e+00  0.00000000e+00
  0.00000000e+00  0.00000000e+00  0.00000000e+00  0.00000000e+00  0.00000000e+00
  0.00000000e+00  8.72369241e-01  0.00000000e+00  0.00000000e+00  0.00000000e+00
  0.00000000e+00  1.94139299e-01  0.00000000e+00  0.00000000e+00  0.00000000e+00
  0.00000000e+00  0.00000000e+00  0.00000000e+00  0.00000000e+00  0.00000000e+00
  0.00000000e+00  0.00000000e+00  0.00000000e+00  0.00000000e+00  0.00000000e+00
  0.00000000e+00  0.00000000e+00  0.00000000e+00  0.00000000e+00  0.00000000e+00
  0.00000000e+00  0.00000000e+00  0.00000000e+00  0.00000000e+00  0.00000000e+00
  0.00000000e+00  0.00000000e+00  0.00000000e+00  0.00000000e+00  0.00000000e+00
  0.00000000e+00  0.00000000e+00  0.00000000e+00  0.00000000e+00  0.00000000e+00
  0.00000000e+00  8.72369241e-01  0.00000000e+00  0.00000000e+00  0.00000000e+00
  0.00000000e+00  1.94139299e-01  0.00000000e+00  0.00000000e+00  0.00000000e+00
  0.00000000e+00  0.00000000e+00  0.00000000e+00  0.00000000e+00  0.00000000e+00
  0.00000000e+00  0.00000000e+00  0.00000000e+00  2.15896104e-01  1.35224075e+00
  2.29639181e+00  1.09643209e-01 -3.42100382e+00  0.00000000e+00  0.00000000e+00
  0.00000000e+00  0.00000000e+00  0.00000000e+00  0.00000000e+00  0.00000000e+00
  0.00000000e+00  0.00000000e+00  0.00000000e+00  0.00000000e+00  0.00000000e+00
  0.00000000e+00  0.00000000e+00  0.00000000e+00  0.00000000e+00  0.00000000e+00
  0.00000000e+00  0.00000000e+00  0.00000000e+00  0.00000000e+00  0.00000000e+00
  0.00000000e+00  0.00000000e+00  0.00000000e+00  0.00000000e+00  0.00000000e+00
  0.00000000e+00  0.00000000e+00  1.36442614e+00  0.00000000e+00  0.00000000e+00
  0.00000000e+00  0.00000000e+00  0.00000000e+00  0.00000000e+00  0.00000000e+00
  0.00000000e+00  0.00000000e+00  0.00000000e+00  0.00000000e+00  0.00000000e+00
  0.00000000e+00  0.00000000e+00  0.00000000e+00  0.00000000e+00  0.00000000e+00
  0.00000000e+00  0.00000000e+00  0.00000000e+00  8.85189436e-01  0.00000000e+00
  0.00000000e+00 -3.59434790e-02  0.00000000e+00 -1.22707281e+00  0.00000000e+00
  0.00000000e+00  4.98257933e-02  0.00000000e+00  0.00000000e+00  0.00000000e+00
  0.00000000e+00  0.00000000e+00  0.00000000e+00  0.00000000e+00  0.00000000e+00
  0.00000000e+00  0.00000000e+00  0.00000000e+00  0.00000000e+00  0.00000000e+00
  0.00000000e+00  0.00000000e+00  0.00000000e+00  0.00000000e+00  0.00000000e+00
  0.00000000e+00  0.00000000e+00  0.00000000e+00  0.00000000e+00  0.00000000e+00
  0.00000000e+00  0.00000000e+00  0.00000000e+00  0.00000000e+00  0.00000000e+00
  0.00000000e+00  0.00000000e+00  8.85918886e-01  0.00000000e+00  0.00000000e+00
  0.00000000e+00  0.00000000e+00 -1.22808399e+00  0.00000000e+00  0.00000000e+00
  0.00000000e+00  0.00000000e+00  0.00000000e+00  0.00000000e+00  0.00000000e+00
  0.00000000e+00  0.00000000e+00  0.00000000e+00  0.00000000e+00  0.00000000e+00
  0.00000000e+00  0.00000000e+00  0.00000000e+00  0.00000000e+00  0.00000000e+00
  0.00000000e+00  0.00000000e+00  0.00000000e+00  0.00000000e+00  0.00000000e+00
  0.00000000e+00  0.00000000e+00  0.00000000e+00  0.00000000e+00  0.00000000e+00
  0.00000000e+00  0.00000000e+00  0.00000000e+00  0.00000000e+00  0.00000000e+00
  0.00000000e+00  8.85918886e-01  0.00000000e+00  0.00000000e+00  0.00000000e+00
  0.00000000e+00 -1.22808399e+00  0.00000000e+00  0.00000000e+00  0.00000000e+00
  0.00000000e+00  0.00000000e+00  0.00000000e+00  0.00000000e+00  0.00000000e+00
  0.00000000e+00  0.00000000e+00  0.00000000e+00  0.00000000e+00  0.00000000e+00
  0.00000000e+00  0.00000000e+00  0.00000000e+00  0.00000000e+00  0.00000000e+00
  0.00000000e+00  0.00000000e+00  0.00000000e+00  0.00000000e+00  0.00000000e+00
  0.00000000e+00  0.00000000e+00  0.00000000e+00  0.00000000e+00  0.00000000e+00
  0.00000000e+00  0.00000000e+00  0.00000000e+00  0.00000000e+00  0.00000000e+00
  0.00000000e+00  8.85918886e-01  0.00000000e+00  0.00000000e+00  0.00000000e+00
  0.00000000e+00 -1.22808399e+00  0.00000000e+00  0.00000000e+00  0.00000000e+00
  0.00000000e+00  0.00000000e+00  0.00000000e+00  0.00000000e+00  0.00000000e+00
  0.00000000e+00  0.00000000e+00  0.00000000e+00  0.00000000e+00  0.00000000e+00
  0.00000000e+00  0.00000000e+00  0.00000000e+00  0.00000000e+00  0.00000000e+00
  0.00000000e+00  0.00000000e+00  0.00000000e+00  0.00000000e+00  0.00000000e+00
  0.00000000e+00  0.00000000e+00  0.00000000e+00  0.00000000e+00  0.00000000e+00
  3.59434790e-02  0.00000000e+00  0.00000000e+00  8.85189436e-01  0.00000000e+00
 -4.98257933e-02  0.00000000e+00  0.00000000e+00 -1.22707281e+00  0.00000000e+00
  0.00000000e+00  0.00000000e+00  0.00000000e+00  0.00000000e+00  0.00000000e+00
  0.00000000e+00  0.00000000e+00  0.00000000e+00  0.00000000e+00  0.00000000e+00
  0.00000000e+00  0.00000000e+00  0.00000000e+00  0.00000000e+00  0.00000000e+00
  0.00000000e+00  0.00000000e+00  0.00000000e+00  0.00000000e+00  0.00000000e+00
  0.00000000e+00  0.00000000e+00  0.00000000e+00  0.00000000e+00  0.00000000e+00
  0.00000000e+00  0.00000000e+00  0.00000000e+00  0.00000000e+00  0.00000000e+00
  0.00000000e+00  0.00000000e+00  0.00000000e+00  0.00000000e+00  0.00000000e+00
  0.00000000e+00  0.00000000e+00  0.00000000e+00  0.00000000e+00  0.00000000e+00
  5.56433139e-01  0.00000000e+00  0.00000000e+00  0.00000000e+00 -8.30892389e-01
  0.00000000e+00  0.00000000e+00  0.00000000e+00  0.00000000e+00  0.00000000e+00
  0.00000000e+00  0.00000000e+00  0.00000000e+00  0.00000000e+00  0.00000000e+00
  0.00000000e+00  0.00000000e+00  0.00000000e+00  0.00000000e+00  0.00000000e+00
  0.00000000e+00  0.00000000e+00  0.00000000e+00  0.00000000e+00  0.00000000e+00
  0.00000000e+00  0.00000000e+00  0.00000000e+00  0.00000000e+00  0.00000000e+00
  0.00000000e+00  0.00000000e+00  0.00000000e+00  0.00000000e+00  0.00000000e+00
  0.00000000e+00  0.00000000e+00  9.13257558e-01  0.00000000e+00  0.00000000e+00
  0.00000000e+00  4.07382660e-01  0.00000000e+00  0.00000000e+00  0.00000000e+00
  0.00000000e+00  0.00000000e+00  0.00000000e+00  0.00000000e+00  0.00000000e+00
  0.00000000e+00  0.00000000e+00  0.00000000e+00  0.00000000e+00  0.00000000e+00
  0.00000000e+00  0.00000000e+00  0.00000000e+00  0.00000000e+00  0.00000000e+00
  0.00000000e+00  0.00000000e+00  0.00000000e+00  0.00000000e+00  0.00000000e+00
  0.00000000e+00  0.00000000e+00  0.00000000e+00  0.00000000e+00  0.00000000e+00
  0.00000000e+00  0.00000000e+00  0.00000000e+00  0.00000000e+00  0.00000000e+00
  0.00000000e+00  0.00000000e+00  0.00000000e+00  1.00000000e+00  0.00000000e+00
  0.00000000e+00  0.00000000e+00  0.00000000e+00  0.00000000e+00  0.00000000e+00
  0.00000000e+00  0.00000000e+00  0.00000000e+00  0.00000000e+00  0.00000000e+00
  0.00000000e+00  0.00000000e+00  0.00000000e+00  0.00000000e+00  0.00000000e+00
  0.00000000e+00  0.00000000e+00  0.00000000e+00  0.00000000e+00  0.00000000e+00
  0.00000000e+00  0.00000000e+00  0.00000000e+00  0.00000000e+00  0.00000000e+00
  0.00000000e+00  0.00000000e+00  0.00000000e+00  0.00000000e+00  0.00000000e+00
  0.00000000e+00  0.00000000e+00  0.00000000e+00  4.07382660e-01  0.00000000e+00
  0.00000000e+00  0.00000000e+00 -9.13257558e-01  0.00000000e+00  0.00000000e+00
  0.00000000e+00  0.00000000e+00  0.00000000e+00  0.00000000e+00  0.00000000e+00
  0.00000000e+00  0.00000000e+00  0.00000000e+00  0.00000000e+00  0.00000000e+00
  0.00000000e+00  0.00000000e+00  0.00000000e+00  0.00000000e+00  0.00000000e+00
  0.00000000e+00  0.00000000e+00  0.00000000e+00  0.00000000e+00  0.00000000e+00
  0.00000000e+00  0.00000000e+00  0.00000000e+00  0.00000000e+00  0.00000000e+00
  0.00000000e+00  0.00000000e+00  0.00000000e+00  0.00000000e+00  0.00000000e+00
  0.00000000e+00  0.00000000e+00  8.30892389e-01  0.00000000e+00  0.00000000e+00
  0.00000000e+00  5.56433139e-01  0.00000000e+00  0.00000000e+00  0.00000000e+00
  0.00000000e+00  0.00000000e+00  0.00000000e+00  0.00000000e+00  0.00000000e+00
  0.00000000e+00  0.00000000e+00  0.00000000e+00  0.00000000e+00  0.00000000e+00
  0.00000000e+00  0.00000000e+00  0.00000000e+00  0.00000000e+00  0.00000000e+00
  0.00000000e+00  0.00000000e+00  0.00000000e+00  0.00000000e+00  0.00000000e+00
  0.00000000e+00  0.00000000e+00  0.00000000e+00  0.00000000e+00  0.00000000e+00
  0.00000000e+00  0.00000000e+00  0.00000000e+00  5.77299400e-01  0.00000000e+00
  0.00000000e+00  8.16532548e-01  0.00000000e+00  0.00000000e+00  0.00000000e+00
  0.00000000e+00  0.00000000e+00  0.00000000e+00  0.00000000e+00  0.00000000e+00
  0.00000000e+00  0.00000000e+00  0.00000000e+00  0.00000000e+00  0.00000000e+00
  0.00000000e+00  0.00000000e+00  0.00000000e+00  0.00000000e+00  0.00000000e+00
  0.00000000e+00  0.00000000e+00  0.00000000e+00  0.00000000e+00  0.00000000e+00
  0.00000000e+00  0.00000000e+00  0.00000000e+00  0.00000000e+00  0.00000000e+00
  0.00000000e+00  0.00000000e+00  0.00000000e+00  0.00000000e+00  0.00000000e+00
  0.00000000e+00  8.16532548e-01  0.00000000e+00  0.00000000e+00 -5.77299400e-01
  0.00000000e+00  0.00000000e+00  0.00000000e+00  0.00000000e+00  0.00000000e+00
  0.00000000e+00  0.00000000e+00  0.00000000e+00  0.00000000e+00  0.00000000e+00
  0.00000000e+00  0.00000000e+00  0.00000000e+00  0.00000000e+00  1.74347614e+00
  0.00000000e+00  0.00000000e+00  2.34184018e+00  0.00000000e+00  0.00000000e+00
 -2.00777584e+00  0.00000000e+00  0.00000000e+00 -1.12000581e+00  0.00000000e+00
  0.00000000e+00  0.00000000e+00  0.00000000e+00  0.00000000e+00  0.00000000e+00
  0.00000000e+00  0.00000000e+00  0.00000000e+00  0.00000000e+00  0.00000000e+00
  0.00000000e+00  0.00000000e+00  0.00000000e+00  0.00000000e+00  0.00000000e+00
  0.00000000e+00  0.00000000e+00  0.00000000e+00  0.00000000e+00  3.32285171e-01
  0.00000000e+00  0.00000000e+00  0.00000000e+00  0.00000000e+00  0.00000000e+00
  0.00000000e+00  1.74347614e+00  0.00000000e+00  0.00000000e+00  2.34184018e+00
  0.00000000e+00  0.00000000e+00 -2.00777584e+00  0.00000000e+00  0.00000000e+00
 -1.12000581e+00  0.00000000e+00  0.00000000e+00  0.00000000e+00  0.00000000e+00
  0.00000000e+00  0.00000000e+00  0.00000000e+00  0.00000000e+00  0.00000000e+00
  0.00000000e+00  0.00000000e+00  0.00000000e+00  0.00000000e+00  0.00000000e+00
  0.00000000e+00  0.00000000e+00  0.00000000e+00  0.00000000e+00  0.00000000e+00
  0.00000000e+00  3.32285171e-01  0.00000000e+00  0.00000000e+00  0.00000000e+00
  0.00000000e+00  0.00000000e+00  0.00000000e+00  1.74347614e+00  0.00000000e+00
  0.00000000e+00  2.34184018e+00  0.00000000e+00  0.00000000e+00 -2.00777584e+00
  0.00000000e+00  0.00000000e+00 -1.12000581e+00  0.00000000e+00  0.00000000e+00
  0.00000000e+00  0.00000000e+00  0.00000000e+00  0.00000000e+00  0.00000000e+00
  0.00000000e+00  0.00000000e+00  0.00000000e+00  0.00000000e+00  0.00000000e+00
  0.00000000e+00  0.00000000e+00  0.00000000e+00  0.00000000e+00  0.00000000e+00
  0.00000000e+00  0.00000000e+00  0.00000000e+00  3.32285171e-01  0.00000000e+00
  0.00000000e+00  9.74158688e-01  4.96418759e+00  4.30925108e+00 -4.02681747e+00
 -2.63969282e+00  0.00000000e+00  0.00000000e+00  0.00000000e+00  0.00000000e+00
  0.00000000e+00  0.00000000e+00  0.00000000e+00  0.00000000e+00  0.00000000e+00
  0.00000000e+00  0.00000000e+00  0.00000000e+00  0.00000000e+00  0.00000000e+00
  0.00000000e+00  0.00000000e+00  0.00000000e+00  0.00000000e+00  0.00000000e+00
  0.00000000e+00  0.00000000e+00  0.00000000e+00  0.00000000e+00  0.00000000e+00
  0.00000000e+00  0.00000000e+00  0.00000000e+00  0.00000000e+00  0.00000000e+00
  7.79057206e-01  0.00000000e+00  0.00000000e+00  0.00000000e+00
beta orbital energies                      R   N=          38
 -1.18612070e+02 -1.23231643e+01 -9.57213595e+00 -9.57213595e+00 -9.57213595e+00
 -1.27788683e+00 -5.91367008e-01 -5.91367008e-01 -5.91367008e-01  1.29759801e-01
  1.29759801e-01  1.29759801e-01  1.45354313e-01  7.10216123e-01  7.10216123e-01
  7.10216123e-01  7.27626139e-01  7.27626139e-01  7.27626139e-01  7.27626139e-01
  7.27626139e-01  1.06540280e+00  2.54582192e+00  2.54582192e+00  2.54582192e+00
  2.54582192e+00  2.54582192e+00  2.92294720e+00  2.92294720e+00  2.92294720e+00
  2.92294720e+00  2.92294720e+00  2.92294720e+00  2.92294720e+00  3.03684261e+00
  3.03684261e+00  3.03684261e+00  6.01212077e+00
beta MO coefficients (C)                   R   N=        1444
  1.00002500e+00  5.09471902e-06  7.31654816e-06 -1.50332260e-04 -3.42273067e-05