[Molden Format]
[Atoms] AU
C       1   6     0.0000000     0.0000000     0.0000000
N       2   7     0.0000000     0.0000000     2.3281256
O       3   8     0.0000000     0.0000000    -2.2212880
[GTO]
     1     0
s   8 1.0
  8.23600000E+03  5.42430189E-04
  1.23500000E+03  4.19642790E-03
  2.80800000E+02  2.15409141E-02
  7.92700000E+01  8.36149496E-02
  2.55900000E+01  2.39871619E-01
  8.99700000E+00  4.43751820E-01
  3.31900000E+00  3.53579696E-01
  3.64300000E-01 -9.17636608E-03
s   8 1.0
  8.23600000E+03 -1.96392234E-04
  1.23500000E+03 -1.52595027E-03
  2.80800000E+02 -7.89044903E-03
  7.92700000E+01 -3.15148705E-02
  2.55900000E+01 -9.69100083E-02
  8.99700000E+00 -2.20541526E-01
  3.31900000E+00 -2.96069113E-01
  3.64300000E-01  1.04050343E+00
s   1 1.0
  9.05900000E-01  1.00000000E+00
s   1 1.0
  1.28500000E-01  1.00000000E+00
p   3 1.0
  1.87100000E+01  3.94263872E-02
  4.13300000E+00  2.44088985E-01
  1.20000000E+00  8.15492009E-01
p   1 1.0
  3.82700000E-01  1.00000000E+00
p   1 1.0
  1.20900000E-01  1.00000000E+00
d   1 1.0
  1.09700000E+00  1.00000000E+00
d   1 1.0
  3.18000000E-01  1.00000000E+00
f   1 1.0
  7.61000000E-01  1.00000000E+00
s   1 1.0
  4.40200000E-02  1.00000000E+00
p   1 1.0
  3.56900000E-02  1.00000000E+00
 
     2     0
s   8 1.0
  1.14200000E+04  5.34980914E-04
  1.71200000E+03  4.13766310E-03
  3.89300000E+02  2.12509149E-02
  1.10000000E+02  8.25762988E-02
  3.55700000E+01  2.38413273E-01
  1.25400000E+01  4.43431666E-01
  4.64400000E+00  3.55431909E-01
  5.11800000E-01 -8.70290176E-03
s   8 1.0
  1.14200000E+04 -1.98776985E-04
  1.71200000E+03 -1.54700349E-03
  3.89300000E+02 -7.99256330E-03
  1.10000000E+02 -3.20255651E-02
  3.55700000E+01 -9.91102048E-02
  1.25400000E+01 -2.28292775E-01
  4.64400000E+00 -2.98182763E-01
  5.11800000E-01  1.03700052E+00
s   1 1.0
  1.29300000E+00  1.00000000E+00
s   1 1.0
  1.78700000E-01  1.00000000E+00
p   3 1.0
  2.66300000E+01  3.98072123E-02
  5.94800000E+00  2.49002660E-01
  1.74200000E+00  8.10479727E-01
p   1 1.0
  5.55000000E-01  1.00000000E+00
p   1 1.0
  1.72500000E-01  1.00000000E+00
d   1 1.0
  1.65400000E+00  1.00000000E+00
d   1 1.0
  4.69000000E-01  1.00000000E+00
f   1 1.0
  1.09300000E+00  1.00000000E+00
s   1 1.0
  5.76000000E-02  1.00000000E+00
p   1 1.0
  4.91000000E-02  1.00000000E+00
 
     3     0
s   8 1.0
  1.53300000E+04  5.20198307E-04
  2.29900000E+03  4.02334478E-03
  5.22400000E+02  2.07290833E-02
  1.47300000E+02  8.10823271E-02
  4.75500000E+01  2.36226352E-01
  1.67600000E+01  4.43518209E-01
  6.20700000E+00  3.58670589E-01
  6.88200000E-01 -8.34979724E-03
s   8 1.0
  1.53300000E+04 -1.97236012E-04
  2.29900000E+03 -1.53501070E-03
  5.22400000E+02 -7.95118391E-03
  1.47300000E+02 -3.21134529E-02
  4.75500000E+01 -1.00269643E-01
  1.67600000E+01 -2.34047112E-01
  6.20700000E+00 -3.01410928E-01
  6.88200000E-01  1.03491965E+00
s   1 1.0
  1.75200000E+00  1.00000000E+00
s   1 1.0
  2.38400000E-01  1.00000000E+00
p   3 1.0
  3.44600000E+01  4.11634896E-02
  7.74900000E+00  2.57762836E-01
  2.28000000E+00  8.02419274E-01
p   1 1.0
  7.15600000E-01  1.00000000E+00
p   1 1.0
  2.14000000E-01  1.00000000E+00
d   1 1.0
  2.31400000E+00  1.00000000E+00
d   1 1.0
  6.45000000E-01  1.00000000E+00
f   1 1.0
  1.42800000E+00  1.00000000E+00
s   1 1.0
  7.37600000E-02  1.00000000E+00
p   1 1.0
  5.97400000E-02  1.00000000E+00
 
 
[5D]
[MO]
Ene=      0.00000000
Spin= Alpha
Occup=  1.999519
     1      0.0047197798
     2      0.0013138831
     3      0.0008318839
     4      0.0022520944
     5      0.0000000000
     6     -0.0000000000
     7     -0.0002516642
     8      0.0000000000
     9     -0.0000000000
    10     -0.0022010918
    11      0.0000000000
    12     -0.0000000000
    13      0.0010451810
    14      0.0003543885
    15     -0.0000000000
    16     -0.0000000000
    17      0.0000165602
    18      0.0000000000
    19      0.0004506453
    20     -0.0000000000
    21      0.0000000000
    22      0.0001570407
    23      0.0000000000
    24      0.0001193708
    25      0.0000000000
    26     -0.0000000000
    27      0.0000858068
    28      0.0000000000
    29     -0.0000000000
    30      0.0000000000
    31      0.0011402753
    32     -0.0000000000
    33     -0.0000000000
    34     -0.0001148596
    35      0.0017088468
    36      0.0005852961
    37     -0.0002013249
    38     -0.0009814767
    39      0.0000000000
    40     -0.0000000000
    41      0.0001592448
    42      0.0000000000
    43     -0.0000000000
    44     -0.0003348926
    45      0.0000000000
    46     -0.0000000000
    47      0.0001587600
    48     -0.0001039163
    49     -0.0000000000
    50     -0.0000000000
    51      0.0000601808
    52      0.0000000000
    53      0.0000888775
    54     -0.0000000000
    55     -0.0000000000
    56     -0.0002467415
    57      0.0000000000
    58      0.0000283893
    59     -0.0000000000
    60      0.0000000000
    61      0.0001413954
    62      0.0000000000
    63     -0.0000000000
    64      0.0000000000
    65     -0.0009171288
    66     -0.0000000000
    67     -0.0000000000
    68      0.0003169203
    69      0.9750158691
    70     -0.0091349412
    71      0.0421107486
    72     -0.0029255211
    73      0.0000000000
    74     -0.0000000000
    75      0.0038536050
    76      0.0000000000
    77     -0.0000000000
    78     -0.0000753214
    79      0.0000000000
    80     -0.0000000000
    81      0.0007439163
    82      0.0003325113
    83      0.0000000000
    84      0.0000000000
    85      0.0000767130
    86      0.0000000000
    87     -0.0008142510
    88      0.0000000000
    89      0.0000000000
    90      0.0000716200
    91     -0.0000000000
    92     -0.0002511594
    93      0.0000000000
    94     -0.0000000000
    95      0.0000099146
    96      0.0000000000
    97      0.0000000000
    98      0.0000000000
    99     -0.0017242405
   100      0.0000000000
   101     -0.0000000000
   102     -0.0001930627
Ene=      0.00000000
Spin= Alpha
Occup=  1.999382
     1      0.0096925168
     2      0.0028404387
     3      0.0005659566
     4      0.0053836462
     5     -0.0000000000
     6      0.0000000000
     7      0.0000545058
     8     -0.0000000000
     9      0.0000000000
    10     -0.0000340450
    11     -0.0000000000
    12      0.0000000000
    13     -0.0008734411
    14      0.0002050447
    15     -0.0000000000
    16     -0.0000000000
    17     -0.0000038734
    18      0.0000000000
    19      0.0014480917
    20     -0.0000000000
    21     -0.0000000000
    22     -0.0001432561
    23     -0.0000000000
    24     -0.0006471586
    25     -0.0000000000
    26     -0.0000000000
    27     -0.0001074081
    28     -0.0000000000
    29     -0.0000000000
    30     -0.0000000000
    31      0.0025293925
    32      0.0000000000
    33     -0.0000000000
    34      0.0003958914
    35      0.9757798949
    36     -0.0105348064
    37      0.0408237362
    38     -0.0044155166
    39     -0.0000000000
    40      0.0000000000
    41     -0.0044083472
    42     -0.0000000000
    43      0.0000000000
    44      0.0000358739
    45     -0.0000000000
    46     -0.0000000000
    47     -0.0009453466
    48      0.0004047646
    49      0.0000000000
    50     -0.0000000000
    51     -0.0000171283
    52      0.0000000000
    53     -0.0008018065
    54      0.0000000000
    55     -0.0000000000
    56      0.0002915014
    57     -0.0000000000
    58      0.0000800602
    59     -0.0000000000
    60     -0.0000000000
    61     -0.0001757901
    62     -0.0000000000
    63      0.0000000000
    64      0.0000000000
    65     -0.0033947877
    66     -0.0000000000
    67     -0.0000000000
    68      0.0003089202
    69     -0.0020028213
    70     -0.0007956339
    71      0.0002566766
    72     -0.0027327350
    73     -0.0000000000
    74      0.0000000000
    75      0.0001545890
    76     -0.0000000000
    77      0.0000000000
    78     -0.0007355343
    79     -0.0000000000
    80      0.0000000000
    81     -0.0014683518
    82      0.0000804130
    83     -0.0000000000
    84      0.0000000000
    85     -0.0000172941
    86     -0.0000000000
    87     -0.0004026218
    88      0.0000000000
    89      0.0000000000
    90     -0.0001352599
    91      0.0000000000
    92     -0.0002871508
    93     -0.0000000000
    94      0.0000000000
    95     -0.0000799973
    96      0.0000000000
    97     -0.0000000000
    98     -0.0000000000
    99     -0.0023111180
   100      0.0000000000
   101     -0.0000000000
   102     -0.0005606461
Ene=      0.00000000
Spin= Alpha
Occup=  1.999170
     1      0.9765818327
     2     -0.0049921222
     3      0.0427383081
     4     -0.0001994562
     5      0.0000000000
     6     -0.0000000000
     7     -0.0012360183
     8      0.0000000000
     9     -0.0000000000
    10     -0.0002732920
    11      0.0000000000
    12     -0.0000000000
    13     -0.0028251305
    14      0.0016268138
    15      0.0000000000
    16      0.0000000000
    17     -0.0002415098
    18     -0.0000000000
    19     -0.0017929148
    20      0.0000000000
    21      0.0000000000
    22     -0.0000146323
    23     -0.0000000000
    24     -0.0000010017
    25      0.0000000000
    26     -0.0000000000
    27     -0.0000272529
    28     -0.0000000000
    29     -0.0000000000
    30     -0.0000000000
    31      0.0008471590
    32      0.0000000000
    33     -0.0000000000
    34      0.0003730179
    35     -0.0082519804
    36      0.0005074515
    37      0.0003212484
    38      0.0044186873
    39      0.0000000000
    40     -0.0000000000
    41      0.0015667376
    42      0.0000000000
    43     -0.0000000000
    44      0.0018593919
    45      0.0000000000
    46      0.0000000000
    47      0.0002298213
    48     -0.0002431610
    49     -0.0000000000
    50      0.0000000000
    51     -0.0000901136
    52      0.0000000000
    53     -0.0003929415
    54     -0.0000000000
    55     -0.0000000000
    56      0.0000718588
    57      0.0000000000
    58      0.0002398994
    59      0.0000000000
    60     -0.0000000000
    61     -0.0000791403
    62     -0.0000000000
    63     -0.0000000000
    64     -0.0000000000
    65      0.0000018170
    66      0.0000000000
    67      0.0000000000
    68     -0.0001034766
    69     -0.0042564789
    70      0.0016497934
    71      0.0006360530
    72      0.0016064289
    73     -0.0000000000
    74     -0.0000000000
    75     -0.0011120141
    76     -0.0000000000
    77     -0.0000000000
    78     -0.0019493353
    79     -0.0000000000
    80     -0.0000000000
    81     -0.0010678037
    82      0.0000199056
    83     -0.0000000000
    84      0.0000000000
    85      0.0001714377
    86     -0.0000000000
    87     -0.0008483518
    88     -0.0000000000
    89      0.0000000000
    90      0.0001282050
    91      0.0000000000
    92     -0.0002417420
    93     -0.0000000000
    94     -0.0000000000
    95     -0.0001022562
    96     -0.0000000000
    97      0.0000000000
    98     -0.0000000000
    99     -0.0019473920
   100     -0.0000000000
   101      0.0000000000
   102     -0.0006340162
Ene=      0.00000000
Spin= Alpha
Occup=  1.981039
     1     -0.0202693186
     2      0.1685746952
     3      0.0407259381
     4      0.0447466921
     5      0.0000000000
     6      0.0000000000
     7     -0.0512905947
     8      0.0000000000
     9      0.0000000000
    10     -0.0005085900
    11      0.0000000000
    12      0.0000000000
    13      0.0639753104
    14      0.0212482832
    15     -0.0000000000
    16     -0.0000000000
    17     -0.0004259565
    18      0.0000000000
    19      0.0170860346
    20     -0.0000000000
    21     -0.0000000000
    22      0.0006811249
    23     -0.0000000000
    24      0.0018165987
    25      0.0000000000
    26      0.0000000000
    27      0.0001682713
    28     -0.0000000000
    29     -0.0000000000
    30      0.0000000000
    31      0.0064592191
    32      0.0000000000
    33     -0.0000000000
    34     -0.0030515116
    35     -0.0031134102
    36      0.0413391695
    37      0.0121616999
    38     -0.0771721667
    39      0.0000000000
    40      0.0000000000
    41     -0.0258632122
    42      0.0000000000
    43      0.0000000000
    44     -0.0146250066
    45      0.0000000000
    46      0.0000000000
    47      0.0263565967
    48      0.0014430483
    49     -0.0000000000
    50     -0.0000000000
    51     -0.0001813162
    52     -0.0000000000
    53     -0.0103979527
    54      0.0000000000
    55     -0.0000000000
    56     -0.0000501272
    57      0.0000000000
    58      0.0007799760
    59      0.0000000000
    60      0.0000000000
    61      0.0007339851
    62     -0.0000000000
    63     -0.0000000000
    64      0.0000000000
    65     -0.0210876480
    66     -0.0000000000
    67     -0.0000000000
    68      0.0040561486
    69      0.0040171865
    70      0.5267809227
    71      0.1421149230
    72      0.3448603095
    73      0.0000000000
    74      0.0000000000
    75     -0.0122127727
    76      0.0000000000
    77      0.0000000000
    78     -0.0047135470
    79      0.0000000000
    80      0.0000000000
    81     -0.0315989788
    82      0.0050980097
    83      0.0000000000
    84      0.0000000000
    85      0.0007911235
    86      0.0000000000
    87      0.0110680604
    88      0.0000000000
    89      0.0000000000
    90      0.0008897546
    91     -0.0000000000
    92      0.0029292990
    93     -0.0000000000
    94     -0.0000000000
    95      0.0000191035
    96      0.0000000000
    97      0.0000000000
    98     -0.0000000000
    99      0.0274018706
   100     -0.0000000000
   101      0.0000000000
   102      0.0027491469
Ene=      0.00000000
Spin= Alpha
Occup=  1.972667
     1     -0.0101273160
     2      0.2650418796
     3      0.0630035877
     4      0.1024562149
     5      0.0000000000
     6      0.0000000000
     7      0.0898202019
     8      0.0000000000
     9      0.0000000000
    10      0.0616935693
    11      0.0000000000
    12      0.0000000000
    13      0.0215331122
    14      0.0208170249
    15      0.0000000000
    16     -0.0000000000
    17      0.0007456819
    18      0.0000000000
    19      0.0229280951
    20      0.0000000000
    21     -0.0000000000
    22     -0.0005906550
    23     -0.0000000000
    24      0.0018322943
    25      0.0000000000
    26      0.0000000000
    27     -0.0003340137
    28      0.0000000000
    29      0.0000000000
    30      0.0000000000
    31     -0.0162405518
    32      0.0000000000
    33     -0.0000000000
    34     -0.0038228446
    35      0.0007686338
    36      0.4586531299
    37      0.1174703762
    38      0.1767431995
    39      0.0000000000
    40      0.0000000000
    41     -0.0419366676
    42      0.0000000000
    43      0.0000000000
    44     -0.0482592385
    45      0.0000000000
    46      0.0000000000
    47      0.0314784642
    48      0.0110964579
    49     -0.0000000000
    50     -0.0000000000
    51      0.0000921863
    52      0.0000000000
    53      0.0122291160
    54     -0.0000000000
    55      0.0000000000
    56      0.0043042504
    57      0.0000000000
    58     -0.0048657131
    59      0.0000000000
    60     -0.0000000000
    61     -0.0009078233
    62     -0.0000000000
    63      0.0000000000
    64      0.0000000000
    65      0.0316673558
    66      0.0000000000
    67     -0.0000000000
    68     -0.0023309248
    69     -0.0046250785
    70     -0.1132260904
    71     -0.0304223316
    72     -0.1397801347
    73     -0.0000000000
    74      0.0000000000
    75      0.0662896059
    76     -0.0000000000
    77      0.0000000000
    78      0.0670992254
    79     -0.0000000000
    80      0.0000000000
    81      0.0260399408
    82      0.0027043580
    83      0.0000000000
    84      0.0000000000
    85     -0.0000032385
    86     -0.0000000000
    87     -0.0030159918
    88      0.0000000000
    89      0.0000000000
    90     -0.0023906069
    91     -0.0000000000
    92     -0.0005414972
    93     -0.0000000000
    94      0.0000000000
    95     -0.0003724734
    96      0.0000000000
    97     -0.0000000000
    98     -0.0000000000
    99     -0.0185607654
   100     -0.0000000000
   101      0.0000000000
   102     -0.0061373530
Ene=      0.00000000
Spin= Alpha
Occup=  1.962852
     1     -0.0015267817
     2     -0.2868477352
     3     -0.0758864868
     4     -0.0967136332
     5     -0.0000000000
     6     -0.0000000000
     7      0.1664962838
     8     -0.0000000000
     9     -0.0000000000
    10      0.1609405761
    11     -0.0000000000
    12     -0.0000000000
    13      0.0135805207
    14     -0.0176038809
    15      0.0000000000
    16      0.0000000000
    17      0.0004419002
    18      0.0000000000
    19     -0.0037705572
    20      0.0000000000
    21      0.0000000000
    22      0.0022023361
    23     -0.0000000000
    24      0.0078461304
    25     -0.0000000000
    26     -0.0000000000
    27     -0.0001263856
    28      0.0000000000
    29      0.0000000000
    30     -0.0000000000
    31     -0.0184510713
    32     -0.0000000000
    33     -0.0000000000
    34     -0.0082216088
    35      0.0037958047
    36      0.1897892696
    37      0.0480607327
    38      0.1362876346
    39     -0.0000000000
    40     -0.0000000000
    41      0.0208348942
    42     -0.0000000000
    43     -0.0000000000
    44      0.0214447285
    45     -0.0000000000
    46     -0.0000000000
    47      0.0048269841
    48      0.0004813107
    49      0.0000000000
    50      0.0000000000
    51      0.0014306249
    52      0.0000000000
    53      0.0115011896
    54      0.0000000000
    55      0.0000000000
    56     -0.0003602340
    57     -0.0000000000
    58     -0.0030853395
    59     -0.0000000000
    60     -0.0000000000
    61     -0.0006613815
    62      0.0000000000
    63      0.0000000000
    64      0.0000000000
    65      0.0292777239
    66      0.0000000000
    67      0.0000000000
    68      0.0040587125
    69      0.0127650200
    70      0.0997693090
    71      0.0336645620
    72      0.2174492458
    73     -0.0000000000
    74     -0.0000000000
    75     -0.2902479938
    76     -0.0000000000
    77     -0.0000000000
    78     -0.3522906912
    79     -0.0000000000
    80     -0.0000000000
    81     -0.1521996799
    82     -0.0139419360
    83     -0.0000000000
    84     -0.0000000000
    85     -0.0003563215
    86      0.0000000000
    87     -0.0277091124
    88     -0.0000000000
    89     -0.0000000000
    90      0.0008883640
    91     -0.0000000000
    92     -0.0061866081
    93     -0.0000000000
    94     -0.0000000000
    95      0.0005366587
    96      0.0000000000
    97      0.0000000000
    98      0.0000000000
    99      0.0403199201
   100     -0.0000000000
   101     -0.0000000000
   102     -0.0003030034
Ene=      0.00000000
Spin= Alpha
Occup=  1.958780
     1      0.0000000000
     2      0.0000000000
     3      0.0000000000
     4      0.0000000000
     5     -0.1728311350
     6      0.0000000000
     7     -0.0000000000
     8     -0.2279489454
     9      0.0000000000
    10     -0.0000000000
    11     -0.0726672451
    12      0.0000000000
    13     -0.0000000000
    14      0.0000000000
    15      0.0176679793
    16     -0.0000000000
    17      0.0000000000
    18      0.0000000000
    19     -0.0000000000
    20      0.0271994981
    21     -0.0000000000
    22     -0.0000000000
    23     -0.0000000000
    24     -0.0000000000
    25     -0.0157243532
    26      0.0000000000
    27     -0.0000000000
    28      0.0000000000
    29      0.0010308917
    30      0.0000000000
    31      0.0000000000
    32     -0.0065487901
    33      0.0000000000
    34      0.0000000000
    35     -0.0000000000
    36     -0.0000000000
    37     -0.0000000000
    38     -0.0000000000
    39     -0.0590165365
    40      0.0000000000
    41      0.0000000000
    42     -0.0717023593
    43      0.0000000000
    44      0.0000000000
    45     -0.0307622891
    46      0.0000000000
    47      0.0000000000
    48     -0.0000000000
    49      0.0052693654
    50     -0.0000000000
    51     -0.0000000000
    52     -0.0000000000
    53     -0.0000000000
    54      0.0094373217
    55     -0.0000000000
    56     -0.0000000000
    57      0.0000000000
    58      0.0000000000
    59     -0.0016521614
    60      0.0000000000
    61      0.0000000000
    62     -0.0000000000
    63      0.0016305210
    64      0.0000000000
    65     -0.0000000000
    66      0.0182482780
    67     -0.0000000000
    68     -0.0000000000
    69      0.0000000000
    70     -0.0000000000
    71     -0.0000000000
    72     -0.0000000000
    73     -0.3020809482
    74      0.0000000000
    75      0.0000000000
    76     -0.3789532391
    77      0.0000000000
    78      0.0000000000
    79     -0.2368611546
    80      0.0000000000
    81      0.0000000000
    82      0.0000000000
    83     -0.0100539699
    84      0.0000000000
    85     -0.0000000000
    86     -0.0000000000
    87      0.0000000000
    88     -0.0247835568
    89      0.0000000000
    90     -0.0000000000
    91      0.0000000000
    92      0.0000000000
    93     -0.0057067571
    94      0.0000000000
    95      0.0000000000
    96     -0.0000000000
    97      0.0007539318
    98     -0.0000000000
    99     -0.0000000000
   100     -0.0068834839
   101     -0.0000000000
   102     -0.0000000000
Ene=      0.00000000
Spin= Alpha
Occup=  1.955753
     1     -0.0063873320
     2     -0.2257747920
     3     -0.0560439036
     4     -0.0515929009
     5      0.0000000000
     6     -0.0000000000
     7     -0.1880212816
     8      0.0000000000
     9     -0.0000000000
    10     -0.2083381538
    11      0.0000000000
    12     -0.0000000000
    13     -0.0781250594
    14     -0.0076038249
    15      0.0000000000
    16     -0.0000000000
    17     -0.0000488128
    18      0.0000000000
    19      0.0153140432
    20      0.0000000000
    21     -0.0000000000
    22      0.0014835170
    23     -0.0000000000
    24     -0.0108300920
    25      0.0000000000
    26      0.0000000000
    27      0.0012490572
    28      0.0000000000
    29     -0.0000000000
    30     -0.0000000000
    31     -0.0015468298
    32      0.0000000000
    33     -0.0000000000
    34      0.0004608870
    35      0.0168895855
    36      0.2112773271
    37      0.0595821353
    38      0.3309794291
    39      0.0000000000
    40     -0.0000000000
    41      0.2717515921
    42      0.0000000000
    43     -0.0000000000
    44      0.3295533368
    45      0.0000000000
    46     -0.0000000000
    47      0.1597797121
    48     -0.0184316261
    49     -0.0000000000
    50      0.0000000000
    51     -0.0007954809
    52      0.0000000000
    53     -0.0282786651
    54     -0.0000000000
    55      0.0000000000
    56     -0.0007507528
    57      0.0000000000
    58      0.0054816498
    59      0.0000000000
    60      0.0000000000
    61     -0.0009038757
    62     -0.0000000000
    63      0.0000000000
    64      0.0000000000
    65      0.0796461157
    66     -0.0000000000
    67     -0.0000000000
    68     -0.0075478640
    69     -0.0039842306
    70      0.0460095018
    71      0.0110926648
    72     -0.0301978030
    73      0.0000000000
    74     -0.0000000000
    75      0.0815441701
    76      0.0000000000
    77     -0.0000000000
    78      0.0972969041
    79      0.0000000000
    80     -0.0000000000
    81      0.0304352243
    82      0.0039291835
    83      0.0000000000
    84     -0.0000000000
    85      0.0002529377
    86     -0.0000000000
    87      0.0107818392
    88      0.0000000000
    89     -0.0000000000
    90      0.0019101762
    91     -0.0000000000
    92      0.0024998342
    93      0.0000000000
    94      0.0000000000
    95      0.0005527818
    96      0.0000000000
    97     -0.0000000000
    98     -0.0000000000
    99     -0.0770980273
   100     -0.0000000000
   101      0.0000000000
   102     -0.0197164232
Ene=      0.00000000
Spin= Alpha
Occup=  1.935223
     1     -0.0000000000
     2     -0.0000000000
     3     -0.0000000000
     4     -0.0000000000
     5      0.1259372848
     6     -0.0000000000
     7      0.0000000000
     8      0.1753516646
     9     -0.0000000000
    10      0.0000000000
    11      0.1051940103
    12     -0.0000000000
    13     -0.0000000000
    14     -0.0000000000
    15      0.0302825165
    16      0.0000000000
    17      0.0000000000
    18      0.0000000000
    19     -0.0000000000
    20      0.0735897273
    21      0.0000000000
    22     -0.0000000000
    23     -0.0000000000
    24      0.0000000000
    25      0.0074722382
    26     -0.0000000000
    27      0.0000000000
    28     -0.0000000000
    29     -0.0027499938
    30      0.0000000000
    31     -0.0000000000
    32      0.0164101302
    33     -0.0000000000
    34     -0.0000000000
    35      0.0000000000
    36     -0.0000000000
    37     -0.0000000000
    38     -0.0000000000
    39      0.2720443479
    40     -0.0000000000
    41     -0.0000000000
    42      0.3515654178
    43     -0.0000000000
    44     -0.0000000000
    45      0.2522509304
    46     -0.0000000000
    47     -0.0000000000
    48      0.0000000000
    49     -0.0139160205
    50      0.0000000000
    51      0.0000000000
    52     -0.0000000000
    53      0.0000000000
    54     -0.0245832572
    55      0.0000000000
    56     -0.0000000000
    57      0.0000000000
    58     -0.0000000000
    59      0.0051232245
    60     -0.0000000000
    61      0.0000000000
    62     -0.0000000000
    63     -0.0008789628
    64      0.0000000000
    65      0.0000000000
    66      0.0227601078
    67      0.0000000000
    68      0.0000000000
    69     -0.0000000000
    70      0.0000000000
    71      0.0000000000
    72      0.0000000000
    73     -0.1615621606
    74     -0.0000000000
    75     -0.0000000000
    76     -0.2063817690
    77     -0.0000000000
    78     -0.0000000000
    79     -0.1515753182
    80     -0.0000000000
    81     -0.0000000000
    82     -0.0000000000
    83     -0.0008584447
    84     -0.0000000000
    85     -0.0000000000
    86     -0.0000000000
    87     -0.0000000000
    88     -0.0069501022
    89     -0.0000000000
    90      0.0000000000
    91      0.0000000000
    92      0.0000000000
    93     -0.0013521705
    94     -0.0000000000
    95     -0.0000000000
    96     -0.0000000000
    97     -0.0001349361
    98      0.0000000000
    99      0.0000000000
   100     -0.0529621394
   101      0.0000000000
   102      0.0000000000
Ene=      0.00000000
Spin= Alpha
Occup=  1.930006
     1      0.0000000000
     2     -0.0000000000
     3     -0.0000000000
     4     -0.0000000000
     5      0.0000000000
     6      0.2021085073
     7      0.0000000000
     8      0.0000000000
     9      0.2706105419
    10      0.0000000000
    11      0.0000000000
    12      0.1005125911
    13     -0.0000000000
    14     -0.0000000000
    15      0.0000000000
    16     -0.0139451845
    17      0.0000000000
    18     -0.0000000000
    19     -0.0000000000
    20      0.0000000000
    21     -0.0251291588
    22      0.0000000000
    23      0.0000000000
    24      0.0000000000
    25      0.0000000000
    26      0.0154061847
    27     -0.0000000000
    28     -0.0000000000
    29     -0.0000000000
    30     -0.0010428150
    31     -0.0000000000
    32      0.0000000000
    33      0.0167000297
    34     -0.0000000000
    35     -0.0000000000
    36      0.0000000000
    37     -0.0000000000
    38      0.0000000000
    39      0.0000000000
    40      0.0867070885
    41      0.0000000000
    42      0.0000000000
    43      0.1123097624
    44      0.0000000000
    45      0.0000000000
    46      0.0564723510
    47     -0.0000000000
    48     -0.0000000000
    49     -0.0000000000
    50     -0.0073426049
    51     -0.0000000000
    52     -0.0000000000
    53      0.0000000000
    54     -0.0000000000
    55     -0.0143810334
    56     -0.0000000000
    57      0.0000000000
    58      0.0000000000
    59      0.0000000000
    60      0.0020003240
    61     -0.0000000000
    62      0.0000000000
    63     -0.0000000000
    64     -0.0007149829
    65      0.0000000000
    66      0.0000000000
    67     -0.0146065693
    68     -0.0000000000
    69      0.0000000000
    70      0.0000000000
    71     -0.0000000000
    72      0.0000000000
    73     -0.0000000000
    74      0.2678454862
    75     -0.0000000000
    76     -0.0000000000
    77      0.3338437540
    78     -0.0000000000
    79     -0.0000000000