Generated by Psi4
     FORCE                          CCSD                   MAY-CC-PVTZ
Number of atoms                            I                3
Charge                                     I                0
Multiplicity                               I                2
Number of electrons                        I               21
Number of alpha electrons                  I               11
Number of beta electrons                   I               10
Number of basis functions                  I              102
Number of independent functions            I              102
Atomic numbers                             I   N=           3
           6           7           8
Nuclear charges                            R   N=           3
  6.00000000e+00  7.00000000e+00  8.00000000e+00
Current cartesian coordinates              R   N=           9
  0.00000000e+00  0.00000000e+00  0.00000000e+00  0.00000000e+00  0.00000000e+00
  2.32812559e+00  0.00000000e+00  0.00000000e+00 -2.22128803e+00
Integer atomic weights                     I   N=           3
          12          14          15
Real atomic weights                        R   N=           3
  1.20000000e+01  1.40030740e+01  1.59949146e+01
Number of primitive shells                 I               84
Number of contracted shells                I               36
Pure/Cartesian d shells                    I                0
Pure/Cartesian f shells                    I                0
Highest angular momentum                   I                3
Largest degree of contraction              I                8
Shell types                                I   N=          36
           0           0           0           0           1           1
           1          -2          -2          -3           0           1
           0           0           0           0           1           1
           1          -2          -2          -3           0           1
           0           0           0           0           1           1
           1          -2          -2          -3           0           1
Number of primitives per shell             I   N=          36
           8           8           1           1           3           1
           1           1           1           1           1           1
           8           8           1           1           3           1
           1           1           1           1           1           1
           8           8           1           1           3           1
           1           1           1           1           1           1
Shell to atom map                          I   N=          36
           1           1           1           1           1           1
           1           1           1           1           1           1
           2           2           2           2           2           2
           2           2           2           2           2           2
           3           3           3           3           3           3
           3           3           3           3           3           3
Primitive exponents                        R   N=          84
  8.23600000e+03  1.23500000e+03  2.80800000e+02  7.92700000e+01  2.55900000e+01
  8.99700000e+00  3.31900000e+00  3.64300000e-01  8.23600000e+03  1.23500000e+03
  2.80800000e+02  7.92700000e+01  2.55900000e+01  8.99700000e+00  3.31900000e+00
  3.64300000e-01  9.05900000e-01  1.28500000e-01  1.87100000e+01  4.13300000e+00
  1.20000000e+00  3.82700000e-01  1.20900000e-01  1.09700000e+00  3.18000000e-01
  7.61000000e-01  4.40200000e-02  3.56900000e-02  1.14200000e+04  1.71200000e+03
  3.89300000e+02  1.10000000e+02  3.55700000e+01  1.25400000e+01  4.64400000e+00
  5.11800000e-01  1.14200000e+04  1.71200000e+03  3.89300000e+02  1.10000000e+02
  3.55700000e+01  1.25400000e+01  4.64400000e+00  5.11800000e-01  1.29300000e+00
  1.78700000e-01  2.66300000e+01  5.94800000e+00  1.74200000e+00  5.55000000e-01
  1.72500000e-01  1.65400000e+00  4.69000000e-01  1.09300000e+00  5.76000000e-02
  4.91000000e-02  1.53300000e+04  2.29900000e+03  5.22400000e+02  1.47300000e+02
  4.75500000e+01  1.67600000e+01  6.20700000e+00  6.88200000e-01  1.53300000e+04
  2.29900000e+03  5.22400000e+02  1.47300000e+02  4.75500000e+01  1.67600000e+01
  6.20700000e+00  6.88200000e-01  1.75200000e+00  2.38400000e-01  3.44600000e+01
  7.74900000e+00  2.28000000e+00  7.15600000e-01  2.14000000e-01  2.31400000e+00
  6.45000000e-01  1.42800000e+00  7.37600000e-02  5.97400000e-02
Contraction coefficients                   R   N=          84
  5.42430189e-04  4.19642790e-03  2.15409141e-02  8.36149496e-02  2.39871619e-01
  4.43751820e-01  3.53579696e-01 -9.17636608e-03 -1.96392234e-04 -1.52595027e-03
 -7.89044903e-03 -3.15148705e-02 -9.69100083e-02 -2.20541526e-01 -2.96069113e-01
  1.04050343e+00  1.00000000e+00  1.00000000e+00  3.94263872e-02  2.44088985e-01
  8.15492009e-01  1.00000000e+00  1.00000000e+00  1.00000000e+00  1.00000000e+00
  1.00000000e+00  1.00000000e+00  1.00000000e+00  5.34980914e-04  4.13766310e-03
  2.12509149e-02  8.25762988e-02  2.38413273e-01  4.43431666e-01  3.55431909e-01
 -8.70290176e-03 -1.98776985e-04 -1.54700349e-03 -7.99256330e-03 -3.20255651e-02
 -9.91102048e-02 -2.28292775e-01 -2.98182763e-01  1.03700052e+00  1.00000000e+00
  1.00000000e+00  3.98072123e-02  2.49002660e-01  8.10479727e-01  1.00000000e+00
  1.00000000e+00  1.00000000e+00  1.00000000e+00  1.00000000e+00  1.00000000e+00
  1.00000000e+00  5.20198307e-04  4.02334478e-03  2.07290833e-02  8.10823271e-02
  2.36226352e-01  4.43518209e-01  3.58670589e-01 -8.34979724e-03 -1.97236012e-04
 -1.53501070e-03 -7.95118391e-03 -3.21134529e-02 -1.00269643e-01 -2.34047112e-01
 -3.01410928e-01  1.03491965e+00  1.00000000e+00  1.00000000e+00  4.11634896e-02
  2.57762836e-01  8.02419274e-01  1.00000000e+00  1.00000000e+00  1.00000000e+00
  1.00000000e+00  1.00000000e+00  1.00000000e+00  1.00000000e+00
Coordinates of each shell                  R   N=         108
  0.00000000e+00  0.00000000e+00  0.00000000e+00  0.00000000e+00  0.00000000e+00
  0.00000000e+00  0.00000000e+00  0.00000000e+00  0.00000000e+00  0.00000000e+00
  0.00000000e+00  0.00000000e+00  0.00000000e+00  0.00000000e+00  0.00000000e+00
  0.00000000e+00  0.00000000e+00  0.00000000e+00  0.00000000e+00  0.00000000e+00
  0.00000000e+00  0.00000000e+00  0.00000000e+00  0.00000000e+00  0.00000000e+00
  0.00000000e+00  0.00000000e+00  0.00000000e+00  0.00000000e+00  0.00000000e+00
  0.00000000e+00  0.00000000e+00  0.00000000e+00  0.00000000e+00  0.00000000e+00
  0.00000000e+00  0.00000000e+00  0.00000000e+00  2.32812559e+00  0.00000000e+00
  0.00000000e+00  2.32812559e+00  0.00000000e+00  0.00000000e+00  2.32812559e+00
  0.00000000e+00  0.00000000e+00  2.32812559e+00  0.00000000e+00  0.00000000e+00
  2.32812559e+00  0.00000000e+00  0.00000000e+00  2.32812559e+00  0.00000000e+00
  0.00000000e+00  2.32812559e+00  0.00000000e+00  0.00000000e+00  2.32812559e+00
  0.00000000e+00  0.00000000e+00  2.32812559e+00  0.00000000e+00  0.00000000e+00
  2.32812559e+00  0.00000000e+00  0.00000000e+00  2.32812559e+00  0.00000000e+00
  0.00000000e+00  2.32812559e+00  0.00000000e+00  0.00000000e+00 -2.22128803e+00
  0.00000000e+00  0.00000000e+00 -2.22128803e+00  0.00000000e+00  0.00000000e+00
 -2.22128803e+00  0.00000000e+00  0.00000000e+00 -2.22128803e+00  0.00000000e+00
  0.00000000e+00 -2.22128803e+00  0.00000000e+00  0.00000000e+00 -2.22128803e+00
  0.00000000e+00  0.00000000e+00 -2.22128803e+00  0.00000000e+00  0.00000000e+00
 -2.22128803e+00  0.00000000e+00  0.00000000e+00 -2.22128803e+00  0.00000000e+00
  0.00000000e+00 -2.22128803e+00  0.00000000e+00  0.00000000e+00 -2.22128803e+00
  0.00000000e+00  0.00000000e+00 -2.22128803e+00
Total Energy                               R     -1.677674403256810e+02
alpha orbital energies                     R   N=         102
 -2.06975901e+01 -1.56527604e+01 -1.14129797e+01 -1.53663817e+00 -1.29201237e+00
 -8.06851004e-01 -7.28406099e-01 -6.96307167e-01 -6.46793354e-01 -5.54467785e-01
 -4.95086188e-01  5.16506195e-02  7.34357258e-02  7.59677798e-02  7.65987850e-02
  1.58778791e-01  1.63953459e-01  1.68784744e-01  1.93595284e-01  2.07711072e-01
  2.20148248e-01  2.40646044e-01  2.48909315e-01  2.49237927e-01  2.80677155e-01
  4.46824873e-01  5.59051143e-01  5.63641542e-01  6.05745484e-01  7.22791481e-01
  7.50477590e-01  7.51384773e-01  7.55417377e-01  7.79207177e-01  7.92167199e-01
  9.62659752e-01  9.63768617e-01  9.82521565e-01  1.14244491e+00  1.16088305e+00
  1.16723591e+00  1.26372720e+00  1.30078553e+00  1.30220946e+00  1.74059079e+00
  1.78546991e+00  1.78585582e+00  1.82287136e+00  1.84671761e+00  2.11326764e+00
  2.28957228e+00  2.36294228e+00  2.37649739e+00  2.43545112e+00  2.44571958e+00
  2.62266552e+00  2.79852644e+00  2.85252773e+00  2.85252906e+00  3.08259275e+00
  3.08288266e+00  3.13745422e+00  3.15484498e+00  3.18067577e+00  3.18073770e+00
  3.51169899e+00  3.55169936e+00  3.73114178e+00  3.79873528e+00  3.82208731e+00
  3.82501392e+00  4.23894884e+00  4.23897632e+00  4.39415480e+00  4.42625076e+00
  4.64815034e+00  4.64845527e+00  4.88139323e+00  4.89114744e+00  4.91738631e+00
  5.14803333e+00  5.35343400e+00  5.38669398e+00  5.48855519e+00  5.48858923e+00
  5.57031431e+00  5.85085730e+00  5.87835685e+00  5.97653552e+00  5.97680319e+00
  6.06478492e+00  6.70886226e+00  6.70886930e+00  6.95282210e+00  7.21858792e+00
  7.24632992e+00  7.48849993e+00  7.50963202e+00  7.51003623e+00  7.90685582e+00
  1.40499490e+01  1.48194109e+01
alpha MO coefficients (C)                  R   N=       10404
  9.13929658e-04  1.92288310e-03 -8.16773829e-05  2.29405465e-03  0.00000000e+00
  0.00000000e+00 -3.97080789e-04  0.00000000e+00  0.00000000e+00 -1.49986268e-03
  0.00000000e+00  0.00000000e+00  2.33493474e-03  4.73167876e-04  0.00000000e+00
  0.00000000e+00  1.39167484e-06  0.00000000e+00  1.41970329e-03  0.00000000e+00
  0.00000000e+00 -1.42228590e-05  0.00000000e+00  3.63156182e-05  0.00000000e+00
  0.00000000e+00  8.44360532e-06  0.00000000e+00  0.00000000e+00  0.00000000e+00
  1.24538963e-03  0.00000000e+00  0.00000000e+00 -9.49895954e-05 -2.57422493e-04
 -4.86306574e-04  7.56504536e-06 -2.26981731e-03  0.00000000e+00  0.00000000e+00
 -1.34497065e-06  0.00000000e+00  0.00000000e+00  3.68124424e-04  0.00000000e+00
  0.00000000e+00  6.76094591e-04 -7.76715431e-05  0.00000000e+00  0.00000000e+00
 -1.03737809e-06  0.00000000e+00 -3.26059149e-05  0.00000000e+00  0.00000000e+00
  2.03188387e-06  0.00000000e+00  7.94136575e-05  0.00000000e+00  0.00000000e+00
  7.82061053e-07  0.00000000e+00  0.00000000e+00  0.00000000e+00 -1.86005789e-03
  0.00000000e+00  0.00000000e+00  5.91751697e-04  9.74835452e-01 -1.95359454e-03
  4.41979585e-02  2.65613472e-03  0.00000000e+00  0.00000000e+00  2.15812675e-03
  0.00000000e+00  0.00000000e+00 -2.12717521e-03  0.00000000e+00  0.00000000e+00
 -6.62276603e-05  1.20592301e-05  0.00000000e+00  0.00000000e+00 -2.63425112e-04
  0.00000000e+00 -6.43141269e-04  0.00000000e+00  0.00000000e+00  7.17874956e-05
  0.00000000e+00 -1.02424276e-04  0.00000000e+00  0.00000000e+00  6.07396770e-06
  0.00000000e+00  0.00000000e+00  0.00000000e+00 -2.16238764e-04  0.00000000e+00
  0.00000000e+00  1.27072458e-04  9.79925662e-04  1.90474363e-03  1.06256328e-04
  1.54959538e-03  0.00000000e+00  0.00000000e+00  5.25442801e-04  0.00000000e+00
  0.00000000e+00 -7.36475008e-04  0.00000000e+00  0.00000000e+00 -2.91996472e-03
  2.80695253e-04  0.00000000e+00  0.00000000e+00  4.32188505e-06  0.00000000e+00
  1.23311067e-03  0.00000000e+00  0.00000000e+00 -2.00790237e-05  0.00000000e+00
 -7.64523962e-04  0.00000000e+00  0.00000000e+00 -2.33430345e-06  0.00000000e+00
  0.00000000e+00  0.00000000e+00  1.58216600e-03  0.00000000e+00  0.00000000e+00
  2.37313308e-04  9.75744572e-01 -1.63141642e-03  4.32881371e-02  5.42823410e-03
  0.00000000e+00  0.00000000e+00 -2.75370367e-03  0.00000000e+00  0.00000000e+00
  1.61940049e-03  0.00000000e+00  0.00000000e+00 -9.13473077e-04  8.95181640e-05
  0.00000000e+00  0.00000000e+00 -4.14929336e-04  0.00000000e+00 -3.74628850e-04
  0.00000000e+00  0.00000000e+00  9.63196221e-05  0.00000000e+00  2.78146292e-05
  0.00000000e+00  0.00000000e+00  5.96174958e-06  0.00000000e+00  0.00000000e+00
  0.00000000e+00 -1.21475821e-03  0.00000000e+00  0.00000000e+00  1.25793736e-04
 -4.28541332e-04 -8.12584825e-04  4.48593458e-05 -2.88998200e-03  0.00000000e+00
  0.00000000e+00  2.69771807e-05  0.00000000e+00  0.00000000e+00 -9.92093848e-04
  0.00000000e+00  0.00000000e+00 -9.20451058e-04 -8.52359795e-05  0.00000000e+00
  0.00000000e+00 -1.39779300e-06  0.00000000e+00 -3.12648960e-04  0.00000000e+00
  0.00000000e+00  4.42369214e-06  0.00000000e+00 -1.08106630e-04  0.00000000e+00
  0.00000000e+00  8.50339654e-07  0.00000000e+00  0.00000000e+00  0.00000000e+00
 -2.33148264e-03  0.00000000e+00  0.00000000e+00 -5.74556996e-04  9.78190191e-01
  6.16231209e-04  4.14270266e-02  3.62032480e-03  0.00000000e+00  0.00000000e+00
 -7.70836552e-04  0.00000000e+00  0.00000000e+00  1.22894600e-03  0.00000000e+00
  0.00000000e+00  4.62824037e-04  1.83228811e-03  0.00000000e+00  0.00000000e+00
  5.96470836e-05  0.00000000e+00 -8.90693700e-04  0.00000000e+00  0.00000000e+00
  5.26675268e-06  0.00000000e+00  5.76278554e-06  0.00000000e+00  0.00000000e+00
 -2.12750975e-05  0.00000000e+00  0.00000000e+00  0.00000000e+00  1.26566710e-03
  0.00000000e+00  0.00000000e+00  3.02689004e-04 -3.52915190e-04  4.43356183e-04
  3.62387394e-04 -1.01149394e-03  0.00000000e+00  0.00000000e+00 -3.60860129e-04
  0.00000000e+00  0.00000000e+00  2.00109747e-04  0.00000000e+00  0.00000000e+00
  7.17196254e-04 -6.79947948e-05  0.00000000e+00  0.00000000e+00 -3.50965102e-06
  0.00000000e+00 -6.42531177e-04  0.00000000e+00  0.00000000e+00  4.33307830e-06
  0.00000000e+00  1.89720923e-04  0.00000000e+00  0.00000000e+00  2.18343805e-06
  0.00000000e+00  0.00000000e+00  0.00000000e+00 -1.64672984e-03  0.00000000e+00
  0.00000000e+00  2.66597309e-04 -1.82581628e-04  6.07631996e-04  3.49557596e-04
  9.63929896e-04  0.00000000e+00  0.00000000e+00  4.58973199e-04  0.00000000e+00
  0.00000000e+00  1.70429459e-04  0.00000000e+00  0.00000000e+00  2.12160711e-04
  6.51512760e-05  0.00000000e+00  0.00000000e+00 -1.51972840e-06  0.00000000e+00
 -5.24699647e-04  0.00000000e+00  0.00000000e+00 -7.87876777e-06  0.00000000e+00
 -1.08949787e-04  0.00000000e+00  0.00000000e+00 -7.00894754e-06  0.00000000e+00
  0.00000000e+00  0.00000000e+00 -1.18132936e-03  0.00000000e+00  0.00000000e+00
 -5.45161169e-04  2.21336537e-02 -2.25256572e-01 -5.25727390e-02 -4.99038245e-02
  0.00000000e+00  0.00000000e+00  1.00111000e-01  0.00000000e+00  0.00000000e+00
  6.01525946e-02  0.00000000e+00  0.00000000e+00 -4.50698371e-02 -2.63575980e-02
  0.00000000e+00  0.00000000e+00 -2.97840885e-04  0.00000000e+00 -2.70499939e-02
  0.00000000e+00  0.00000000e+00  4.37260584e-05  0.00000000e+00  4.11340706e-03
  0.00000000e+00  0.00000000e+00  5.64571191e-04  0.00000000e+00  0.00000000e+00
  0.00000000e+00  5.24893146e-04  0.00000000e+00  0.00000000e+00 -8.27049479e-04
  3.93059396e-03 -3.32053202e-02 -1.13682796e-02  6.18861123e-02  0.00000000e+00
  0.00000000e+00  1.22531993e-02  0.00000000e+00  0.00000000e+00 -2.23425429e-03
  0.00000000e+00  0.00000000e+00 -2.88632298e-02 -6.90364658e-04  0.00000000e+00
  0.00000000e+00  3.83414718e-04  0.00000000e+00  1.01590264e-02  0.00000000e+00
  0.00000000e+00  6.97828477e-04  0.00000000e+00 -1.99575329e-03  0.00000000e+00
  0.00000000e+00 -1.74041507e-04  0.00000000e+00  0.00000000e+00  0.00000000e+00
  1.81087267e-02  0.00000000e+00  0.00000000e+00 -2.93226701e-03  8.01880218e-03
 -4.87860318e-01 -1.28902968e-01 -2.43718595e-01  0.00000000e+00  0.00000000e+00
 -7.87426856e-02  0.00000000e+00  0.00000000e+00 -1.02763595e-01  0.00000000e+00
  0.00000000e+00 -1.96584165e-02 -7.32124085e-03  0.00000000e+00  0.00000000e+00
  2.67322085e-03  0.00000000e+00 -1.64317051e-02  0.00000000e+00  0.00000000e+00
  4.44870589e-03  0.00000000e+00 -4.79985235e-03  0.00000000e+00  0.00000000e+00
  3.76515226e-04  0.00000000e+00  0.00000000e+00  0.00000000e+00 -2.85345200e-02
  0.00000000e+00  0.00000000e+00 -7.71032156e-03  1.52542867e-02 -2.35106751e-01
 -5.25016731e-02 -4.04659083e-02  0.00000000e+00  0.00000000e+00 -1.45757169e-01
  0.00000000e+00  0.00000000e+00 -1.16817402e-01  0.00000000e+00  0.00000000e+00
  5.90240848e-03 -1.91455625e-02  0.00000000e+00  0.00000000e+00  2.71577719e-04
  0.00000000e+00 -1.62216619e-02  0.00000000e+00  0.00000000e+00  9.44149802e-04
  0.00000000e+00 -5.47413604e-03  0.00000000e+00  0.00000000e+00  1.19901998e-03
  0.00000000e+00  0.00000000e+00  0.00000000e+00  5.90659520e-03  0.00000000e+00
  0.00000000e+00  3.51590710e-03  1.23963873e-02 -4.44296981e-01 -1.09309705e-01
 -2.00022913e-01  0.00000000e+00  0.00000000e+00  9.32888077e-02  0.00000000e+00
  0.00000000e+00  1.20696559e-01  0.00000000e+00  0.00000000e+00  2.87824183e-02
 -1.09713425e-02  0.00000000e+00  0.00000000e+00  4.53906966e-03  0.00000000e+00
 -1.68860328e-02  0.00000000e+00  0.00000000e+00  8.85281089e-03  0.00000000e+00
  5.09489831e-03  0.00000000e+00  0.00000000e+00 -2.10004906e-03  0.00000000e+00
  0.00000000e+00  0.00000000e+00 -1.08401288e-02  0.00000000e+00  0.00000000e+00
  7.57671213e-04 -4.93548776e-04  9.48962642e-02  2.40153330e-02  9.07645213e-02
  0.00000000e+00  0.00000000e+00  2.25323735e-03  0.00000000e+00  0.00000000e+00
  1.28902588e-02  0.00000000e+00  0.00000000e+00  1.67412180e-02  5.41476331e-04
  0.00000000e+00  0.00000000e+00 -5.31162551e-04  0.00000000e+00  9.10557910e-03
  0.00000000e+00  0.00000000e+00 -7.38237372e-04  0.00000000e+00  2.00271188e-03
  0.00000000e+00  0.00000000e+00  1.54273201e-04  0.00000000e+00  0.00000000e+00
  0.00000000e+00  6.11896336e-03  0.00000000e+00  0.00000000e+00 -3.16918266e-03
  2.23660260e-03 -2.66142054e-01 -6.63760675e-02 -9.42014821e-02  0.00000000e+00
  0.00000000e+00  1.22112874e-01  0.00000000e+00  0.00000000e+00  1.35069099e-01
  0.00000000e+00  0.00000000e+00  1.37288286e-02 -1.64472653e-02  0.00000000e+00
  0.00000000e+00 -2.93844427e-04  0.00000000e+00 -7.81393859e-03  0.00000000e+00
  0.00000000e+00  3.13582703e-04  0.00000000e+00  7.67351506e-03  0.00000000e+00
  0.00000000e+00  2.05615870e-04  0.00000000e+00  0.00000000e+00  0.00000000e+00
  2.02589474e-03  0.00000000e+00  0.00000000e+00 -4.31822320e-03 -8.56558631e-04
  1.06110887e-01  2.68410642e-02  9.54824851e-02  0.00000000e+00  0.00000000e+00
  2.52768672e-02  0.00000000e+00  0.00000000e+00  3.07854151e-02  0.00000000e+00
  0.00000000e+00  8.41830596e-03 -1.68660672e-03  0.00000000e+00  0.00000000e+00
 -1.08985196e-03  0.00000000e+00  8.97035343e-04  0.00000000e+00  0.00000000e+00
 -2.58091509e-03  0.00000000e+00 -1.62232051e-03  0.00000000e+00  0.00000000e+00
 -1.76408107e-04  0.00000000e+00  0.00000000e+00  0.00000000e+00  6.81801223e-04
  0.00000000e+00  0.00000000e+00  4.48380055e-03  7.16543900e-03  2.59393384e-01
  7.58423523e-02  3.13124695e-01  0.00000000e+00  0.00000000e+00 -2.93124479e-01
  0.00000000e+00  0.00000000e+00 -3.54301440e-01  0.00000000e+00  0.00000000e+00
 -1.56981624e-01 -1.40293225e-02  0.00000000e+00  0.00000000e+00 -1.52251417e-03
  0.00000000e+00 -2.62278144e-02  0.00000000e+00  0.00000000e+00 -4.04125074e-03
  0.00000000e+00 -4.30852421e-03  0.00000000e+00  0.00000000e+00  1.93196199e-03
  0.00000000e+00  0.00000000e+00  0.00000000e+00  3.47431837e-02  0.00000000e+00
  0.00000000e+00  1.52856579e-03  0.00000000e+00  0.00000000e+00  0.00000000e+00
  0.00000000e+00  0.00000000e+00  1.51135744e-01  0.00000000e+00  0.00000000e+00
  1.96683051e-01  0.00000000e+00  0.00000000e+00  5.37128802e-02  0.00000000e+00
  0.00000000e+00  0.00000000e+00 -1.16000998e-02  0.00000000e+00  0.00000000e+00
  0.00000000e+00  0.00000000e+00 -1.56671054e-02  0.00000000e+00  0.00000000e+00
  0.00000000e+00  0.00000000e+00  1.66518273e-02  0.00000000e+00  0.00000000e+00
  0.00000000e+00 -6.26074865e-04  0.00000000e+00  0.00000000e+00  1.91168541e-02
  0.00000000e+00  0.00000000e+00  0.00000000e+00  0.00000000e+00  0.00000000e+00
  0.00000000e+00  1.09714362e-01  0.00000000e+00  0.00000000e+00  1.48493957e-01
  0.00000000e+00  0.00000000e+00  8.47618594e-02  0.00000000e+00  0.00000000e+00
  0.00000000e+00 -7.14521263e-03  0.00000000e+00  0.00000000e+00  0.00000000e+00
  0.00000000e+00 -1.75049191e-02  0.00000000e+00  0.00000000e+00  0.00000000e+00
  0.00000000e+00  1.28750578e-03  0.00000000e+00  0.00000000e+00  0.00000000e+00
 -1.92818746e-03  0.00000000e+00  0.00000000e+00 -1.45583582e-02  0.00000000e+00
  0.00000000e+00  0.00000000e+00  0.00000000e+00  0.00000000e+00  0.00000000e+00
  2.99180307e-01  0.00000000e+00  0.00000000e+00  3.84354398e-01  0.00000000e+00
  0.00000000e+00  2.24944664e-01  0.00000000e+00  0.00000000e+00  0.00000000e+00
  9.80886512e-03  0.00000000e+00  0.00000000e+00  0.00000000e+00  0.00000000e+00
  2.46826383e-02  0.00000000e+00  0.00000000e+00  0.00000000e+00  0.00000000e+00
  3.79037682e-03  0.00000000e+00  0.00000000e+00  0.00000000e+00 -2.39142955e-03
  0.00000000e+00  0.00000000e+00 -6.90479321e-03  0.00000000e+00  0.00000000e+00
  0.00000000e+00  0.00000000e+00  0.00000000e+00  1.64453296e-01  0.00000000e+00
  0.00000000e+00  2.16676655e-01  0.00000000e+00  0.00000000e+00  6.31320567e-02
  0.00000000e+00  0.00000000e+00  0.00000000e+00 -1.26882801e-02  0.00000000e+00
  0.00000000e+00  0.00000000e+00  0.00000000e+00 -1.95282996e-02  0.00000000e+00
  0.00000000e+00  0.00000000e+00  0.00000000e+00  1.72697095e-02  0.00000000e+00
  0.00000000e+00  0.00000000e+00 -6.61048215e-04  0.00000000e+00  0.00000000e+00
  1.69566128e-02  0.00000000e+00  0.00000000e+00  0.00000000e+00  0.00000000e+00
  0.00000000e+00  0.00000000e+00  1.00491853e-01  0.00000000e+00  0.00000000e+00
  1.33212260e-01  0.00000000e+00  0.00000000e+00  7.90175942e-02  0.00000000e+00
  0.00000000e+00  0.00000000e+00 -7.12433566e-03  0.00000000e+00  0.00000000e+00
  0.00000000e+00  0.00000000e+00 -1.59352752e-02  0.00000000e+00  0.00000000e+00
  0.00000000e+00  0.00000000e+00  1.89901926e-03  0.00000000e+00  0.00000000e+00
  0.00000000e+00 -1.81744480e-03  0.00000000e+00  0.00000000e+00 -1.27015540e-02
  0.00000000e+00  0.00000000e+00  0.00000000e+00  0.00000000e+00  0.00000000e+00
  0.00000000e+00  2.89816140e-01  0.00000000e+00  0.00000000e+00  3.69571252e-01
  0.00000000e+00  0.00000000e+00  2.25367822e-01  0.00000000e+00  0.00000000e+00
  0.00000000e+00  1.01887878e-02  0.00000000e+00  0.00000000e+00  0.00000000e+00
  0.00000000e+00  2.49213969e-02  0.00000000e+00  0.00000000e+00  0.00000000e+00
  0.00000000e+00  5.01728484e-03  0.00000000e+00  0.00000000e+00  0.00000000e+00
 -2.35408323e-03  0.00000000e+00  0.00000000e+00 -3.20941456e-03  0.00000000e+00
  0.00000000e+00  2.51820646e-03  1.96752959e-01  4.63585176e-02  9.92768895e-02
  0.00000000e+00  0.00000000e+00  1.52959971e-01  0.00000000e+00  0.00000000e+00
  1.85716967e-01  0.00000000e+00  0.00000000e+00  7.03498429e-02  7.11648639e-03
  0.00000000e+00  0.00000000e+00 -3.45478952e-04  0.00000000e+00 -6.90476717e-03
  0.00000000e+00  0.00000000e+00 -1.45291095e-03  0.00000000e+00  1.02478916e-02
  0.00000000e+00  0.00000000e+00 -1.50548540e-03  0.00000000e+00  0.00000000e+00
  0.00000000e+00  1.43132999e-02  0.00000000e+00  0.00000000e+00 -4.64635322e-03
 -9.08900089e-03 -3.08275319e-01 -8.50049272e-02 -3.86675719e-01  0.00000000e+00
  0.00000000e+00 -2.63376803e-01  0.00000000e+00  0.00000000e+00 -3.20893233e-01
  0.00000000e+00  0.00000000e+00 -1.42289521e-01  1.87993016e-02  0.00000000e+00
  0.00000000e+00  2.90547123e-03  0.00000000e+00  2.96889557e-02  0.00000000e+00
  0.00000000e+00  8.85465483e-03  0.00000000e+00 -2.66472703e-03  0.00000000e+00
  0.00000000e+00  2.96998259e-03  0.00000000e+00  0.00000000e+00  0.00000000e+00
 -7.21578925e-02  0.00000000e+00  0.00000000e+00  1.26649077e-02  3.09178774e-03
  1.48268028e-02  4.84956791e-03  5.98291657e-02  0.00000000e+00  0.00000000e+00
 -7.79779435e-02  0.00000000e+00  0.00000000e+00 -9.03526258e-02  0.00000000e+00
  0.00000000e+00 -4.09119161e-02 -3.50189501e-03  0.00000000e+00  0.00000000e+00
 -7.83986999e-05  0.00000000e+00 -7.92554073e-03  0.00000000e+00  0.00000000e+00
 -6.46918639e-04  0.00000000e+00 -2.03056385e-03  0.00000000e+00  0.00000000e+00
  3.26416427e-04  0.00000000e+00  0.00000000e+00  0.00000000e+00  3.70607323e-02
  0.00000000e+00  0.00000000e+00  9.83817019e-03  0.00000000e+00  0.00000000e+00
  0.00000000e+00  0.00000000e+00  0.00000000e+00  7.47723193e-02  0.00000000e+00
  0.00000000e+00  1.04590554e-01  0.00000000e+00  0.00000000e+00  5.51308282e-02
  0.00000000e+00  0.00000000e+00  0.00000000e+00  3.20570006e-02  0.00000000e+00
  0.00000000e+00  0.00000000e+00  0.00000000e+00  6.18575880e-02  0.00000000e+00
  0.00000000e+00  0.00000000e+00  0.00000000e+00  5.96607769e-03  0.00000000e+00
  0.00000000e+00  0.00000000e+00 -7.82194032e-04  0.00000000e+00  0.00000000e+00
  1.50649747e-02  0.00000000e+00  0.00000000e+00  0.00000000e+00  0.00000000e+00
  0.00000000e+00  0.00000000e+00  2.87210049e-01  0.00000000e+00  0.00000000e+00
  3.90868074e-01  0.00000000e+00  0.00000000e+00  2.53699182e-01  0.00000000e+00
  0.00000000e+00  0.00000000e+00 -1.36156693e-02  0.00000000e+00  0.00000000e+00
  0.00000000e+00  0.00000000e+00 -3.33110026e-02  0.00000000e+00  0.00000000e+00
  0.00000000e+00  0.00000000e+00  2.92476017e-03  0.00000000e+00  0.00000000e+00
  0.00000000e+00 -4.88937167e-03  0.00000000e+00  0.00000000e+00  3.06367996e-03
  0.00000000e+00  0.00000000e+00  0.00000000e+00  0.00000000e+00  0.00000000e+00
  0.00000000e+00 -1.84600014e-01  0.00000000e+00  0.00000000e+00 -2.39142865e-01
  0.00000000e+00  0.00000000e+00 -1.63633422e-01  0.00000000e+00  0.00000000e+00
  0.00000000e+00 -2.93807370e-03  0.00000000e+00  0.00000000e+00  0.00000000e+00
  0.00000000e+00 -9.95219637e-03  0.00000000e+00  0.00000000e+00  0.00000000e+00
  0.00000000e+00 -1.62932521e-03  0.00000000e+00  0.00000000e+00  0.00000000e+00
  1.47680360e-03  0.00000000e+00  0.00000000e+00 -2.81188405e-02  0.00000000e+00
  0.00000000e+00  0.00000000e+00  0.00000000e+00  0.00000000e+00  8.86050304e-02
  0.00000000e+00  0.00000000e+00  1.25748891e-01  0.00000000e+00  0.00000000e+00
  7.29483777e-02  0.00000000e+00  0.00000000e+00  0.00000000e+00  3.33905795e-02
  0.00000000e+00  0.00000000e+00  0.00000000e+00  0.00000000e+00  6.58110901e-02
  0.00000000e+00  0.00000000e+00  0.00000000e+00  0.00000000e+00  5.84500408e-03
  0.00000000e+00  0.00000000e+00  0.00000000e+00 -8.40833093e-04  0.00000000e+00
  0.00000000e+00  1.53885970e-02  0.00000000e+00  0.00000000e+00  0.00000000e+00
  0.00000000e+00  0.00000000e+00  0.00000000e+00  2.75325097e-01  0.00000000e+00
  0.00000000e+00  3.66261264e-01  0.00000000e+00  0.00000000e+00  2.56267624e-01
  0.00000000e+00  0.00000000e+00  0.00000000e+00 -1.36812657e-02  0.00000000e+00
  0.00000000e+00  0.00000000e+00  0.00000000e+00 -3.02860824e-02  0.00000000e+00
  0.00000000e+00  0.00000000e+00  0.00000000e+00  4.85731012e-03  0.00000000e+00
  0.00000000e+00  0.00000000e+00 -4.80751107e-03  0.00000000e+00  0.00000000e+00
  1.36085283e-02  0.00000000e+00  0.00000000e+00  0.00000000e+00  0.00000000e+00
  0.00000000e+00  0.00000000e+00 -1.86473878e-01  0.00000000e+00  0.00000000e+00
 -2.40201856e-01  0.00000000e+00  0.00000000e+00 -1.80405781e-01  0.00000000e+00
  0.00000000e+00  0.00000000e+00 -2.67549196e-03  0.00000000e+00  0.00000000e+00
  0.00000000e+00  0.00000000e+00 -1.02238913e-02  0.00000000e+00  0.00000000e+00
  0.00000000e+00  0.00000000e+00 -2.28185426e-03  0.00000000e+00  0.00000000e+00
  0.00000000e+00  1.51354578e-03  0.00000000e+00  0.00000000e+00 -3.73408444e-02
  0.00000000e+00  0.00000000e+00  1.40343081e-02  1.71423320e-02  6.64955797e-03
 -9.10775981e-01  0.00000000e+00  0.00000000e+00  1.97517564e-03  0.00000000e+00
  0.00000000e+00  1.43239273e-01  0.00000000e+00  0.00000000e+00  5.64895105e-01
  1.17759827e-02  0.00000000e+00  0.00000000e+00 -4.65402284e-04  0.00000000e+00
  1.71374297e-03  0.00000000e+00  0.00000000e+00  1.67326059e-03  0.00000000e+00
  1.15345614e-02  0.00000000e+00  0.00000000e+00  9.59353939e-05  0.00000000e+00
  0.00000000e+00  0.00000000e+00 -4.68595749e+00  0.00000000e+00  0.00000000e+00
  3.57638343e-02  1.65168132e-02  1.10204990e-01  2.99681696e-02 -2.94863846e-01
  0.00000000e+00  0.00000000e+00 -1.95772718e-02  0.00000000e+00  0.00000000e+00
  8.48283927e-03  0.00000000e+00  0.00000000e+00  3.19333739e-02 -1.05223691e-03
  0.00000000e+00  0.00000000e+00 -9.69058856e-04  0.00000000e+00 -1.06418562e-02
  0.00000000e+00  0.00000000e+00 -4.47269840e-04  0.00000000e+00  2.93215797e-03
  0.00000000e+00  0.00000000e+00  3.08670058e-04  0.00000000e+00  0.00000000e+00
  0.00000000e+00  2.23763256e+00  0.00000000e+00  0.00000000e+00 -6.60327455e-01
  9.98043614e-03  9.19754632e-02  2.19889338e-02  3.20748273e-01  0.00000000e+00
  0.00000000e+00  1.20043312e-02  0.00000000e+00  0.00000000e+00  3.58422539e-02
  0.00000000e+00  0.00000000e+00  2.50590875e-01 -9.23363392e-04  0.00000000e+00
  0.00000000e+00 -4.37809929e-04  0.00000000e+00  2.75823471e-02  0.00000000e+00
  0.00000000e+00 -4.79478580e-04  0.00000000e+00  2.06096163e-03  0.00000000e+00
  0.00000000e+00 -7.65670417e-05  0.00000000e+00  0.00000000e+00  0.00000000e+00
  2.58439378e+00  0.00000000e+00  0.00000000e+00  6.13345597e-01  0.00000000e+00
  0.00000000e+00  0.00000000e+00  0.00000000e+00  0.00000000e+00  1.18264069e-02
  0.00000000e+00  0.00000000e+00  8.31137011e-03  0.00000000e+00  0.00000000e+00
  5.82819953e-02  0.00000000e+00  0.00000000e+00  0.00000000e+00  5.51656037e-04
  0.00000000e+00  0.00000000e+00  0.00000000e+00  0.00000000e+00 -7.70862034e-03
  0.00000000e+00  0.00000000e+00  0.00000000e+00  0.00000000e+00  4.95172363e-03
  0.00000000e+00  0.00000000e+00  0.00000000e+00 -5.94684373e-06  0.00000000e+00