[Molden Format]
[Atoms] AU
Ar      1  18     0.0000000     0.0000000    -8.8777406
C       2   6     0.0000000     0.0000000     0.0000000
N       3   7     0.0000000     0.0000000     2.3281256
O       4   8     0.0000000     0.0000000    -2.2212880
[GTO]
     1     0
s  13 1.0
  5.45000000E+05  4.55816851E-05
  8.16400000E+04  3.54099339E-04
  1.85800000E+04  1.85792456E-03
  5.26100000E+03  7.76831999E-03
  1.71700000E+03  2.74225293E-02
  6.19900000E+02  8.23815850E-02
  2.41600000E+02  2.01225078E-01
  9.97900000E+01  3.56772274E-01
  4.31500000E+01  3.49554450E-01
  1.91400000E+01  1.18263107E-01
  7.48800000E+00  5.60176299E-03
  3.20500000E+00  4.83461175E-04
  5.20400000E-01  2.92017857E-05
s  13 1.0
  5.45000000E+05 -1.38905279E-05
  8.16400000E+04 -1.07679442E-04
  1.85800000E+04 -5.67821742E-04
  5.26100000E+03 -2.37381982E-03
  1.71700000E+03 -8.54381497E-03
  6.19900000E+02 -2.63551299E-02
  2.41600000E+02 -7.05294555E-02
  9.97900000E+01 -1.47902155E-01
  4.31500000E+01 -2.16188771E-01
  1.91400000E+01 -4.42642836E-02
  7.48800000E+00  5.19676504E-01
  3.20500000E+00  6.21047089E-01
  5.20400000E-01 -7.80086241E-03
s  13 1.0
  5.45000000E+05  6.24207639E-06
  8.16400000E+04  4.83489267E-05
  1.85800000E+04  2.55308769E-04
  5.26100000E+03  1.06605275E-03
  1.71700000E+03  3.84999200E-03
  6.19900000E+02  1.18844979E-02
  2.41600000E+02  3.21689111E-02
  9.97900000E+01  6.84279475E-02
  4.31500000E+01  1.04842346E-01
  1.91400000E+01  2.17861552E-02
  7.48800000E+00 -3.19801029E-01
  3.20500000E+00 -6.55118240E-01
  5.20400000E-01  1.13073305E+00
s   1 1.0
  1.19600000E+00  1.00000000E+00
s   1 1.0
  1.95400000E-01  1.00000000E+00
p   7 1.0
  7.61800000E+02  2.43607294E-03
  1.80200000E+02  1.95521334E-02
  5.75000000E+01  9.05454602E-02
  2.12400000E+01  2.63551192E-01
  8.38800000E+00  4.50987440E-01
  3.41600000E+00  3.57295015E-01
  4.52300000E-01 -5.38541778E-03
p   7 1.0
  7.61800000E+02 -1.14159413E-03
  1.80200000E+02 -9.11475682E-03
  5.75000000E+01 -4.37148745E-02
  2.12400000E+01 -1.29555965E-01
  8.38800000E+00 -2.41477740E-01
  3.41600000E+00 -1.59596061E-01
  4.52300000E-01  9.62348672E-01
p   1 1.0
  1.20600000E+00  1.00000000E+00
p   1 1.0
  1.54500000E-01  1.00000000E+00
d   1 1.0
  4.10000000E-01  1.00000000E+00
d   1 1.0
  1.25400000E+00  1.00000000E+00
f   1 1.0
  8.90000000E-01  1.00000000E+00
s   1 1.0
  6.85000000E-02  1.00000000E+00
p   1 1.0
  4.87000000E-02  1.00000000E+00
 
     2     0
s   8 1.0
  8.23600000E+03  5.42430189E-04
  1.23500000E+03  4.19642790E-03
  2.80800000E+02  2.15409141E-02
  7.92700000E+01  8.36149496E-02
  2.55900000E+01  2.39871619E-01
  8.99700000E+00  4.43751820E-01
  3.31900000E+00  3.53579696E-01
  3.64300000E-01 -9.17636608E-03
s   8 1.0
  8.23600000E+03 -1.96392234E-04
  1.23500000E+03 -1.52595027E-03
  2.80800000E+02 -7.89044903E-03
  7.92700000E+01 -3.15148705E-02
  2.55900000E+01 -9.69100083E-02
  8.99700000E+00 -2.20541526E-01
  3.31900000E+00 -2.96069113E-01
  3.64300000E-01  1.04050343E+00
s   1 1.0
  9.05900000E-01  1.00000000E+00
s   1 1.0
  1.28500000E-01  1.00000000E+00
p   3 1.0
  1.87100000E+01  3.94263872E-02
  4.13300000E+00  2.44088985E-01
  1.20000000E+00  8.15492009E-01
p   1 1.0
  3.82700000E-01  1.00000000E+00
p   1 1.0
  1.20900000E-01  1.00000000E+00
d   1 1.0
  1.09700000E+00  1.00000000E+00
d   1 1.0
  3.18000000E-01  1.00000000E+00
f   1 1.0
  7.61000000E-01  1.00000000E+00
s   1 1.0
  4.40200000E-02  1.00000000E+00
p   1 1.0
  3.56900000E-02  1.00000000E+00
 
     3     0
s   8 1.0
  1.14200000E+04  5.34980914E-04
  1.71200000E+03  4.13766310E-03
  3.89300000E+02  2.12509149E-02
  1.10000000E+02  8.25762988E-02
  3.55700000E+01  2.38413273E-01
  1.25400000E+01  4.43431666E-01
  4.64400000E+00  3.55431909E-01
  5.11800000E-01 -8.70290176E-03
s   8 1.0
  1.14200000E+04 -1.98776985E-04
  1.71200000E+03 -1.54700349E-03
  3.89300000E+02 -7.99256330E-03
  1.10000000E+02 -3.20255651E-02
  3.55700000E+01 -9.91102048E-02
  1.25400000E+01 -2.28292775E-01
  4.64400000E+00 -2.98182763E-01
  5.11800000E-01  1.03700052E+00
s   1 1.0
  1.29300000E+00  1.00000000E+00
s   1 1.0
  1.78700000E-01  1.00000000E+00
p   3 1.0
  2.66300000E+01  3.98072123E-02
  5.94800000E+00  2.49002660E-01
  1.74200000E+00  8.10479727E-01
p   1 1.0
  5.55000000E-01  1.00000000E+00
p   1 1.0
  1.72500000E-01  1.00000000E+00
d   1 1.0
  1.65400000E+00  1.00000000E+00
d   1 1.0
  4.69000000E-01  1.00000000E+00
f   1 1.0
  1.09300000E+00  1.00000000E+00
s   1 1.0
  5.76000000E-02  1.00000000E+00
p   1 1.0
  4.91000000E-02  1.00000000E+00
 
     4     0
s   8 1.0
  1.53300000E+04  5.20198307E-04
  2.29900000E+03  4.02334478E-03
  5.22400000E+02  2.07290833E-02
  1.47300000E+02  8.10823271E-02
  4.75500000E+01  2.36226352E-01
  1.67600000E+01  4.43518209E-01
  6.20700000E+00  3.58670589E-01
  6.88200000E-01 -8.34979724E-03
s   8 1.0
  1.53300000E+04 -1.97236012E-04
  2.29900000E+03 -1.53501070E-03
  5.22400000E+02 -7.95118391E-03
  1.47300000E+02 -3.21134529E-02
  4.75500000E+01 -1.00269643E-01
  1.67600000E+01 -2.34047112E-01
  6.20700000E+00 -3.01410928E-01
  6.88200000E-01  1.03491965E+00
s   1 1.0
  1.75200000E+00  1.00000000E+00
s   1 1.0
  2.38400000E-01  1.00000000E+00
p   3 1.0
  3.44600000E+01  4.11634896E-02
  7.74900000E+00  2.57762836E-01
  2.28000000E+00  8.02419274E-01
p   1 1.0
  7.15600000E-01  1.00000000E+00
p   1 1.0
  2.14000000E-01  1.00000000E+00
d   1 1.0
  2.31400000E+00  1.00000000E+00
d   1 1.0
  6.45000000E-01  1.00000000E+00
f   1 1.0
  1.42800000E+00  1.00000000E+00
s   1 1.0
  7.37600000E-02  1.00000000E+00
p   1 1.0
  5.97400000E-02  1.00000000E+00
 
 
[5D]
[MO]
Ene=      0.00000000
Spin= Alpha
Occup=  1.999998
     1      0.9994235354
     2      0.0322969990
     3     -0.0005863027
     4      0.0028341068
     5     -0.0002945605
     6      0.0000000000
     7      0.0000000000
     8     -0.0000067174
     9     -0.0000000000
    10     -0.0000000000
    11     -0.0000020089
    12      0.0000000000
    13      0.0000000000
    14     -0.0000004887
    15     -0.0000000000
    16     -0.0000000000
    17      0.0000028837
    18      0.0000001752
    19      0.0000000000
    20      0.0000000000
    21      0.0000001447
    22      0.0000000000
    23      0.0000002000
    24     -0.0000000000
    25     -0.0000000000
    26     -0.0000001693
    27     -0.0000000000
    28     -0.0000000114
    29      0.0000000000
    30      0.0000000000
    31     -0.0000000066
    32      0.0000000000
    33      0.0000000000
    34     -0.0000000000
    35     -0.0000162496
    36     -0.0000000000
    37     -0.0000000000
    38     -0.0000011829
    39     -0.0000016396
    40     -0.0000027520
    41     -0.0000020545
    42     -0.0000635849
    43     -0.0000000000
    44     -0.0000000000
    45     -0.0000002553
    46     -0.0000000000
    47     -0.0000000000
    48      0.0000134180
    49      0.0000000000
    50     -0.0000000000
    51      0.0000178162
    52     -0.0000004149
    53      0.0000000000
    54      0.0000000000
    55     -0.0000000395
    56      0.0000000000
    57     -0.0000048736
    58     -0.0000000000
    59      0.0000000000
    60      0.0000003163
    61     -0.0000000000
    62      0.0000020144
    63     -0.0000000000
    64     -0.0000000000
    65      0.0000000999
    66      0.0000000000
    67     -0.0000000000
    68      0.0000000000
    69     -0.0000229720
    70      0.0000000000
    71     -0.0000000000
    72      0.0000092619
    73     -0.0000011551
    74     -0.0000002352
    75     -0.0000012091
    76      0.0000045236
    77     -0.0000000000
    78     -0.0000000000
    79      0.0000015364
    80     -0.0000000000
    81     -0.0000000000
    82      0.0000037828
    83     -0.0000000000
    84     -0.0000000000
    85     -0.0000088329
    86     -0.0000011775
    87      0.0000000000
    88      0.0000000000
    89      0.0000000015
    90      0.0000000000
    91      0.0000004401
    92     -0.0000000000
    93      0.0000000000
    94      0.0000000078
    95     -0.0000000000
    96     -0.0000005919
    97      0.0000000000
    98     -0.0000000000
    99      0.0000000779
   100     -0.0000000000
   101     -0.0000000000
   102      0.0000000000
   103      0.0000084147
   104     -0.0000000000
   105      0.0000000000
   106     -0.0000065379
   107      0.0000018242
   108      0.0000009507
   109      0.0000001416
   110      0.0000287339
   111      0.0000000000
   112     -0.0000000000
   113     -0.0000007993
   114      0.0000000000
   115     -0.0000000000
   116      0.0000002051
   117      0.0000000000
   118     -0.0000000000
   119      0.0000252431
   120     -0.0000007478
   121     -0.0000000000
   122      0.0000000000
   123      0.0000000536
   124     -0.0000000000
   125      0.0000022609
   126      0.0000000000
   127     -0.0000000000
   128      0.0000000555
   129      0.0000000000
   130      0.0000004299
   131      0.0000000000
   132     -0.0000000000
   133      0.0000002221
   134      0.0000000000
   135      0.0000000000
   136     -0.0000000000
   137      0.0000482932
   138     -0.0000000000
   139      0.0000000000
   140      0.0000053017
Ene=      0.00000000
Spin= Alpha
Occup=  1.999613
     1     -0.0349231084
     2      0.9304618791
     3     -0.0155221726
     4      0.0875169050
     5     -0.0055630661
     6      0.0000000000
     7      0.0000000000
     8      0.0002025551
     9     -0.0000000000
    10     -0.0000000000
    11     -0.0001005302
    12      0.0000000000
    13      0.0000000000
    14     -0.0000080183
    15     -0.0000000000
    16     -0.0000000000
    17      0.0001424680
    18     -0.0000086969
    19      0.0000000000
    20      0.0000000000
    21      0.0000111755
    22     -0.0000000000
    23      0.0000218183
    24     -0.0000000000
    25      0.0000000000
    26     -0.0000143563
    27     -0.0000000000
    28     -0.0000018025
    29      0.0000000000
    30      0.0000000000
    31     -0.0000006984
    32      0.0000000000
    33      0.0000000000
    34     -0.0000000000
    35     -0.0009595527
    36     -0.0000000000
    37     -0.0000000000
    38     -0.0001789325
    39     -0.0000971947
    40     -0.0001416561
    41      0.0001673141
    42     -0.0025033069
    43      0.0000000000
    44      0.0000000000
    45      0.0001613972
    46      0.0000000000
    47      0.0000000000
    48      0.0001698796
    49      0.0000000000
    50      0.0000000000
    51      0.0005724421
    52     -0.0000097135
    53     -0.0000000000
    54     -0.0000000000
    55      0.0000028681
    56      0.0000000000
    57     -0.0002699726
    58     -0.0000000000
    59     -0.0000000000
    60      0.0000154349
    61     -0.0000000000
    62     -0.0001405019
    63      0.0000000000
    64      0.0000000000
    65     -0.0000198550
    66     -0.0000000000
    67      0.0000000000
    68      0.0000000000
    69     -0.0007586014
    70      0.0000000000
    71      0.0000000000
    72      0.0002777365
    73     -0.0000034109
    74     -0.0000086890
    75      0.0002017760
    76      0.0002927224
    77      0.0000000000
    78      0.0000000000
    79     -0.0000633309
    80      0.0000000000
    81      0.0000000000
    82      0.0001508130
    83      0.0000000000
    84      0.0000000000
    85     -0.0003655495
    86      0.0001341639
    87     -0.0000000000
    88      0.0000000000
    89      0.0000036242
    90     -0.0000000000
    91     -0.0001759527
    92     -0.0000000000
    93     -0.0000000000
    94      0.0000052444
    95      0.0000000000
    96      0.0001090310
    97      0.0000000000
    98      0.0000000000
    99     -0.0000088868
   100     -0.0000000000
   101      0.0000000000
   102      0.0000000000
   103      0.0005016603
   104      0.0000000000
   105     -0.0000000000
   106     -0.0002917555
   107     -0.0002976205
   108     -0.0000536258
   109     -0.0000521090
   110      0.0010586690
   111      0.0000000000
   112      0.0000000000
   113     -0.0000994264
   114      0.0000000000
   115      0.0000000000
   116     -0.0001316445
   117      0.0000000000
   118      0.0000000000
   119      0.0010235843
   120      0.0000432873
   121     -0.0000000000
   122      0.0000000000
   123     -0.0000078723
   124      0.0000000000
   125     -0.0000070229
   126      0.0000000000
   127     -0.0000000000
   128     -0.0000000910
   129      0.0000000000
   130     -0.0000295799
   131     -0.0000000000
   132     -0.0000000000
   133     -0.0000346105
   134      0.0000000000
   135      0.0000000000
   136      0.0000000000
   137      0.0016338714
   138     -0.0000000000
   139     -0.0000000000
   140     -0.0000658099
Ene=      0.00000000
Spin= Alpha
Occup=  1.999519
     1      0.0000126561
     2      0.0003626324
     3      0.0000086465
     4     -0.0001426257
     5      0.0002558125
     6      0.0000000000
     7      0.0000000000
     8     -0.0003543294
     9     -0.0000000000
    10     -0.0000000000
    11      0.0000489029
    12      0.0000000000
    13      0.0000000000
    14      0.0000064595
    15     -0.0000000000
    16     -0.0000000000
    17     -0.0000222913
    18     -0.0000843915
    19      0.0000000000
    20      0.0000000000
    21      0.0000378236
    22     -0.0000000000
    23      0.0000918168
    24     -0.0000000000
    25     -0.0000000000
    26     -0.0000583609
    27      0.0000000000
    28     -0.0000015723
    29      0.0000000000
    30     -0.0000000000
    31     -0.0000198369
    32      0.0000000000
    33      0.0000000000
    34      0.0000000000
    35     -0.0004847808
    36     -0.0000000000
    37     -0.0000000000
    38     -0.0001877394
    39      0.0063358322
    40      0.0034619719
    41     -0.0001278529
    42      0.0074976393
    43     -0.0000000000
    44     -0.0000000000
    45     -0.0002442875
    46     -0.0000000000
    47     -0.0000000000
    48     -0.0013179156
    49      0.0000000000
    50     -0.0000000000
    51      0.0017871736
    52      0.0004895125
    53     -0.0000000000
    54     -0.0000000000
    55      0.0000010693
    56     -0.0000000000
    57      0.0021970321
    58     -0.0000000000
    59      0.0000000000
    60     -0.0000478319
    61      0.0000000000
    62      0.0001998164
    63      0.0000000000
    64      0.0000000000
    65      0.0000816208
    66      0.0000000000
    67     -0.0000000000
    68      0.0000000000
    69      0.0018361143
    70      0.0000000000
    71     -0.0000000000
    72     -0.0003282380
    73     -0.0007511984
    74     -0.0012391087
    75      0.0000105338
    76     -0.0042105934
    77     -0.0000000000
    78     -0.0000000000
    79     -0.0000272504
    80     -0.0000000000
    81     -0.0000000000
    82      0.0009817171
    83     -0.0000000000
    84     -0.0000000000
    85      0.0015678623
    86     -0.0000929999
    87      0.0000000000
    88     -0.0000000000
    89      0.0000518069
    90     -0.0000000000
    91     -0.0003942985
    92      0.0000000000
    93      0.0000000000
    94      0.0001201266
    95      0.0000000000
    96      0.0000867340
    97     -0.0000000000
    98     -0.0000000000
    99      0.0001391113
   100      0.0000000000
   101      0.0000000000
   102     -0.0000000000
   103     -0.0016755395
   104     -0.0000000000
   105      0.0000000000
   106      0.0005470494
   107      0.9744259880
   108     -0.0098551002
   109      0.0425548040
   110     -0.0041926005
   111      0.0000000000
   112     -0.0000000000
   113      0.0038200935
   114      0.0000000000
   115     -0.0000000000
   116     -0.0004309784
   117      0.0000000000
   118     -0.0000000000
   119      0.0002290986
   120      0.0004474101
   121     -0.0000000000
   122     -0.0000000000
   123      0.0001427714
   124      0.0000000000
   125     -0.0009617291
   126      0.0000000000
   127     -0.0000000000
   128     -0.0000333469
   129      0.0000000000
   130     -0.0001390377
   131     -0.0000000000
   132     -0.0000000000
   133     -0.0000045088
   134     -0.0000000000
   135     -0.0000000000
   136     -0.0000000000
   137     -0.0029367236
   138     -0.0000000000
   139      0.0000000000
   140     -0.0008737266
Ene=      0.00000000
Spin= Alpha
Occup=  1.999422
     1      0.0000000000
     2      0.0000000000
     3     -0.0000000000
     4      0.0000000000
     5     -0.0000000000
     6      0.0000000013
     7     -0.9706275346
     8      0.0000000001
     9     -0.0000000000
    10      0.0165880709
    11     -0.0000000000
    12      0.0000000001
    13     -0.0520913393
    14      0.0000000000
    15     -0.0000000000
    16      0.0057488187
    17     -0.0000000000
    18      0.0000000000
    19     -0.0000000000
    20     -0.0000034015
    21     -0.0000000000
    22      0.0000000000
    23      0.0000000000
    24     -0.0000000000
    25      0.0000015803
    26      0.0000000000
    27      0.0000000000
    28      0.0000000000
    29      0.0000000000
    30     -0.0000002482
    31     -0.0000000000
    32     -0.0000000000
    33     -0.0000000000
    34     -0.0000000786
    35      0.0000000000
    36     -0.0000000000
    37      0.0011397824
    38     -0.0000000000
    39     -0.0000000000
    40     -0.0000000000
    41     -0.0000000000
    42     -0.0000000000
    43     -0.0000000000
    44     -0.0000057444
    45     -0.0000000000
    46     -0.0000000000
    47      0.0000023995
    48      0.0000000000
    49      0.0000000000
    50      0.0000138830
    51      0.0000000000
    52      0.0000000000
    53      0.0000000000
    54     -0.0000024217
    55      0.0000000000
    56     -0.0000000000
    57     -0.0000000000
    58     -0.0000000000
    59      0.0000309593
    60     -0.0000000000
    61      0.0000000000
    62      0.0000000000
    63      0.0000000000
    64      0.0000036172
    65      0.0000000000
    66     -0.0000000000
    67     -0.0000000000
    68      0.0000000199
    69     -0.0000000000
    70      0.0000000000
    71     -0.0002311139
    72     -0.0000000000
    73     -0.0000000000
    74      0.0000000000
    75     -0.0000000000
    76      0.0000000000
    77      0.0000000000
    78     -0.0000015122
    79      0.0000000000
    80     -0.0000000000
    81      0.0000065624
    82      0.0000000000
    83     -0.0000000000
    84     -0.0000594821
    85     -0.0000000000
    86     -0.0000000000
    87      0.0000000000
    88     -0.0000014892
    89      0.0000000000
    90      0.0000000000
    91      0.0000000000
    92      0.0000000000
    93      0.0000159835
    94     -0.0000000000
    95      0.0000000000
    96      0.0000000000
    97      0.0000000000
    98     -0.0000033376
    99     -0.0000000000
   100     -0.0000000000
   101      0.0000000000
   102     -0.0000000034
   103      0.0000000000
   104     -0.0000000000
   105      0.0001804358
   106      0.0000000000
   107      0.0000000000
   108      0.0000000000
   109      0.0000000000
   110      0.0000000000
   111      0.0000000000
   112      0.0000008190
   113     -0.0000000000
   114      0.0000000000
   115      0.0000066573
   116      0.0000000000
   117     -0.0000000000
   118     -0.0000010589
   119      0.0000000000
   120     -0.0000000000
   121      0.0000000000
   122     -0.0000015584
   123      0.0000000000
   124      0.0000000000
   125      0.0000000000
   126     -0.0000000000
   127     -0.0000006607
   128      0.0000000000
   129      0.0000000000
   130      0.0000000000
   131     -0.0000000000
   132      0.0000001092
   133     -0.0000000000
   134     -0.0000000000
   135     -0.0000000000
   136     -0.0000000102
   137      0.0000000000
   138     -0.0000000000
   139      0.0000337564
   140      0.0000000000
Ene=      0.00000000
Spin= Alpha
Occup=  1.999420
     1     -0.0000000000
     2     -0.0000000000
     3     -0.0000000000
     4     -0.0000000000
     5      0.0000000000
     6      0.9713777245
     7      0.0000000013
     8      0.0000000001
     9     -0.0159010839
    10     -0.0000000000
    11     -0.0000000000
    12      0.0509657806
    13      0.0000000001
    14      0.0000000000
    15     -0.0056632184
    16     -0.0000000000
    17     -0.0000000000
    18      0.0000000000
    19     -0.0000763082
    20      0.0000000000
    21     -0.0000000000
    22     -0.0000000000
    23      0.0000000000
    24     -0.0000230749
    25     -0.0000000000
    26      0.0000000000
    27     -0.0000000000
    28      0.0000000000
    29      0.0005471022
    30     -0.0000000000
    31     -0.0000000000
    32     -0.0000000000
    33     -0.0000047321
    34     -0.0000000000
    35      0.0000000000
    36     -0.0010633465
    37     -0.0000000000
    38     -0.0000000000
    39      0.0000000000
    40     -0.0000000000
    41      0.0000000000
    42     -0.0000000000
    43     -0.0000715762
    44     -0.0000000000
    45     -0.0000000000
    46     -0.0003689460
    47     -0.0000000000
    48      0.0000000000
    49      0.0010246852
    50     -0.0000000000
    51      0.0000000000
    52     -0.0000000000
    53      0.0000010214
    54      0.0000000000
    55      0.0000000000
    56      0.0000000000
    57     -0.0000000000
    58     -0.0000182965
    59     -0.0000000000
    60     -0.0000000000
    61     -0.0000000000
    62      0.0000000000
    63      0.0000005050
    64     -0.0000000000
    65      0.0000000000
    66     -0.0000000000
    67     -0.0000000331
    68      0.0000000000
    69     -0.0000000000
    70      0.0002020369
    71      0.0000000000
    72     -0.0000000000
    73      0.0000000000
    74      0.0000000000
    75      0.0000000000
    76      0.0000000000
    77     -0.0000009686
    78     -0.0000000000
    79     -0.0000000000
    80     -0.0000038612
    81     -0.0000000000
    82     -0.0000000000
    83     -0.0000979033
    84      0.0000000000
    85     -0.0000000000
    86     -0.0000000000
    87      0.0000023463
    88      0.0000000000
    89      0.0000000000
    90     -0.0000000000
    91      0.0000000000
    92      0.0000225095
    93     -0.0000000000
    94     -0.0000000000
    95      0.0000000000
    96     -0.0000000000
    97      0.0000029239
    98      0.0000000000
    99     -0.0000000000
   100      0.0000000000
   101     -0.0000003388
   102     -0.0000000000
   103      0.0000000000
   104     -0.0004219772
   105     -0.0000000000
   106      0.0000000000
   107     -0.0000000000
   108      0.0000000000
   109     -0.0000000000
   110      0.0000000000
   111      0.0000202049
   112     -0.0000000000
   113     -0.0000000000
   114      0.0000403800
   115     -0.0000000000
   116      0.0000000000
   117     -0.0000823310
   118     -0.0000000000
   119      0.0000000000
   120     -0.0000000000
   121      0.0000009136
   122      0.0000000000
   123      0.0000000000
   124      0.0000000000
   125      0.0000000000
   126     -0.0000002205
   127      0.0000000000
   128      0.0000000000
   129      0.0000000000
   130      0.0000000000
   131     -0.0000007872
   132      0.0000000000
   133     -0.0000000000
   134      0.0000000000
   135     -0.0000002583
   136      0.0000000000
   137      0.0000000000
   138     -0.0004581258
   139     -0.0000000000
   140      0.0000000000
Ene=      0.00000000
Spin= Alpha
Occup=  1.999419
     1     -0.0000026691
     2      0.0002939286
     3      0.0001407666
     4      0.0000269806
     5     -0.0000633488
     6      0.0000000001
     7     -0.0000000001
     8     -0.9712809944
     9     -0.0000000000
    10      0.0000000000
    11      0.0161086199
    12      0.0000000000
    13     -0.0000000000
    14     -0.0509950289
    15     -0.0000000000
    16      0.0000000000
    17      0.0052236566
    18     -0.0000455647
    19     -0.0000000000
    20     -0.0000000000
    21      0.0000060703
    22      0.0000000000
    23     -0.0001177125
    24     -0.0000000000
    25     -0.0000000000
    26     -0.0000284917
    27      0.0000000000
    28     -0.0000031521
    29      0.0000000000
    30     -0.0000000000
    31      0.0000541700
    32      0.0000000000
    33     -0.0000000000
    34     -0.0000000000
    35     -0.0004543780
    36     -0.0000000000
    37      0.0000000000
    38      0.0009587755
    39      0.0003447926
    40      0.0004386733
    41     -0.0000319892
    42      0.0060854872
    43     -0.0000000000
    44      0.0000000000
    45      0.0000327641
    46     -0.0000000000
    47      0.0000000000
    48     -0.0000359482
    49      0.0000000000
    50      0.0000000000
    51     -0.0015823342
    52      0.0000090860
    53      0.0000000000
    54     -0.0000000000
    55     -0.0003105707
    56      0.0000000000
    57      0.0006744763
    58     -0.0000000000
    59      0.0000000000
    60      0.0000650199
    61     -0.0000000000
    62     -0.0000864256
    63      0.0000000000
    64     -0.0000000000
    65     -0.0004301738
    66      0.0000000000
    67      0.0000000000
    68     -0.0000000000
    69      0.0018621602
    70      0.0000000000
    71     -0.0000000000
    72      0.0016466915
    73      0.0003043459
    74     -0.0000865229
    75     -0.0000147904
    76     -0.0013008001
    77      0.0000000000
    78      0.0000000000
    79     -0.0000112956
    80      0.0000000000
    81      0.0000000000
    82      0.0000447368
    83     -0.0000000000
    84     -0.0000000000
    85      0.0013684726
    86      0.0000289468
    87      0.0000000000
    88     -0.0000000000
    89     -0.0000313018
    90      0.0000000000
    91     -0.0001290767
    92      0.0000000000
    93      0.0000000000
    94      0.0000733616
    95     -0.0000000000
    96      0.0000080436
    97      0.0000000000
    98     -0.0000000000
    99      0.0001175420
   100     -0.0000000000
   101     -0.0000000000
   102      0.0000000000
   103     -0.0010021163
   104     -0.0000000000
   105      0.0000000000
   106     -0.0008455300
   107     -0.0003683426
   108     -0.0000028908
   109     -0.0000143139
   110     -0.0023287116
   111     -0.0000000000
   112      0.0000000000
   113      0.0000394831
   114      0.0000000000
   115      0.0000000000
   116     -0.0002404671
   117     -0.0000000000
   118      0.0000000000
   119     -0.0007866689
   120      0.0000017227
   121     -0.0000000000
   122      0.0000000000
   123      0.0000033394
   124      0.0000000000
   125     -0.0001263969
   126      0.0000000000
   127      0.0000000000
   128     -0.0002151775
   129     -0.0000000000
   130     -0.0000125664
   131     -0.0000000000
   132     -0.0000000000
   133      0.0000123376
   134      0.0000000000
   135      0.0000000000
   136      0.0000000000
   137     -0.0035649760
   138     -0.0000000000
   139      0.0000000000
   140     -0.0028534900
Ene=      0.00000000
Spin= Alpha
Occup=  1.999380
     1      0.0000094313
     2      0.0001384514
     3      0.0001589695
     4      0.0000448099
     5     -0.0004122888
     6      0.0000000000
     7      0.0000000000
     8     -0.0003079668
     9     -0.0000000000
    10     -0.0000000000
    11     -0.0000201018
    12      0.0000000000
    13      0.0000000000
    14     -0.0000414607
    15     -0.0000000000
    16     -0.0000000000
    17      0.0000436327
    18      0.0001655759
    19      0.0000000000
    20     -0.0000000000
    21     -0.0000862183
    22      0.0000000000
    23     -0.0001080328
    24     -0.0000000000
    25      0.0000000000
    26      0.0000964523
    27      0.0000000000
    28     -0.0000016609
    29      0.0000000000
    30      0.0000000000
    31      0.0000188785
    32     -0.0000000000
    33     -0.0000000000
    34     -0.0000000000
    35      0.0004788930
    36     -0.0000000000
    37     -0.0000000000
    38      0.0001757647
    39     -0.0073804211
    40     -0.0011215862
    41     -0.0006731583
    42     -0.0021022097
    43      0.0000000000
    44      0.0000000000
    45     -0.0000793711
    46      0.0000000000
    47      0.0000000000
    48      0.0021990931
    49      0.0000000000
    50      0.0000000000
    51      0.0040378837
    52      0.0001203553
    53     -0.0000000000
    54     -0.0000000000
    55      0.0000141585
    56      0.0000000000
    57     -0.0008165779
    58     -0.0000000000
    59     -0.0000000000
    60      0.0000076794
    61     -0.0000000000
    62      0.0008539410
    63      0.0000000000
    64     -0.0000000000
    65      0.0001205842
    66      0.0000000000
    67     -0.0000000000
    68      0.0000000000
    69     -0.0029710929
    70      0.0000000000
    71      0.0000000000
    72     -0.0000815701
    73     -0.9761865475
    74      0.0098421772