Generated by Psi4
     FORCE                          CCSD                   MAY-CC-PVTZ
Number of atoms                            I                4
Charge                                     I                0
Multiplicity                               I                2
Number of electrons                        I               39
Number of alpha electrons                  I               20
Number of beta electrons                   I               19
Number of basis functions                  I              140
Number of independent functions            I              140
Atomic numbers                             I   N=           4
          18           6           7           8
Nuclear charges                            R   N=           4
  1.80000000e+01  6.00000000e+00  7.00000000e+00  8.00000000e+00
Current cartesian coordinates              R   N=          12
  0.00000000e+00  0.00000000e+00 -8.87774062e+00  0.00000000e+00  0.00000000e+00
  0.00000000e+00  0.00000000e+00  0.00000000e+00  2.32812559e+00  0.00000000e+00
  0.00000000e+00 -2.22128803e+00
Integer atomic weights                     I   N=           4
          39          12          14          15
Real atomic weights                        R   N=           4
  3.99623831e+01  1.20000000e+01  1.40030740e+01  1.59949146e+01
Number of primitive shells                 I              146
Number of contracted shells                I               50
Pure/Cartesian d shells                    I                0
Pure/Cartesian f shells                    I                0
Highest angular momentum                   I                3
Largest degree of contraction              I               13
Shell types                                I   N=          50
           0           0           0           0           0           1
           1           1           1          -2          -2          -3
           0           1           0           0           0           0
           1           1           1          -2          -2          -3
           0           1           0           0           0           0
           1           1           1          -2          -2          -3
           0           1           0           0           0           0
           1           1           1          -2          -2          -3
           0           1
Number of primitives per shell             I   N=          50
          13          13          13           1           1           7
           7           1           1           1           1           1
           1           1           8           8           1           1
           3           1           1           1           1           1
           1           1           8           8           1           1
           3           1           1           1           1           1
           1           1           8           8           1           1
           3           1           1           1           1           1
           1           1
Shell to atom map                          I   N=          50
           1           1           1           1           1           1
           1           1           1           1           1           1
           1           1           2           2           2           2
           2           2           2           2           2           2
           2           2           3           3           3           3
           3           3           3           3           3           3
           3           3           4           4           4           4
           4           4           4           4           4           4
           4           4
Primitive exponents                        R   N=         146
  5.45000000e+05  8.16400000e+04  1.85800000e+04  5.26100000e+03  1.71700000e+03
  6.19900000e+02  2.41600000e+02  9.97900000e+01  4.31500000e+01  1.91400000e+01
  7.48800000e+00  3.20500000e+00  5.20400000e-01  5.45000000e+05  8.16400000e+04
  1.85800000e+04  5.26100000e+03  1.71700000e+03  6.19900000e+02  2.41600000e+02
  9.97900000e+01  4.31500000e+01  1.91400000e+01  7.48800000e+00  3.20500000e+00
  5.20400000e-01  5.45000000e+05  8.16400000e+04  1.85800000e+04  5.26100000e+03
  1.71700000e+03  6.19900000e+02  2.41600000e+02  9.97900000e+01  4.31500000e+01
  1.91400000e+01  7.48800000e+00  3.20500000e+00  5.20400000e-01  1.19600000e+00
  1.95400000e-01  7.61800000e+02  1.80200000e+02  5.75000000e+01  2.12400000e+01
  8.38800000e+00  3.41600000e+00  4.52300000e-01  7.61800000e+02  1.80200000e+02
  5.75000000e+01  2.12400000e+01  8.38800000e+00  3.41600000e+00  4.52300000e-01
  1.20600000e+00  1.54500000e-01  4.10000000e-01  1.25400000e+00  8.90000000e-01
  6.85000000e-02  4.87000000e-02  8.23600000e+03  1.23500000e+03  2.80800000e+02
  7.92700000e+01  2.55900000e+01  8.99700000e+00  3.31900000e+00  3.64300000e-01
  8.23600000e+03  1.23500000e+03  2.80800000e+02  7.92700000e+01  2.55900000e+01
  8.99700000e+00  3.31900000e+00  3.64300000e-01  9.05900000e-01  1.28500000e-01
  1.87100000e+01  4.13300000e+00  1.20000000e+00  3.82700000e-01  1.20900000e-01
  1.09700000e+00  3.18000000e-01  7.61000000e-01  4.40200000e-02  3.56900000e-02
  1.14200000e+04  1.71200000e+03  3.89300000e+02  1.10000000e+02  3.55700000e+01
  1.25400000e+01  4.64400000e+00  5.11800000e-01  1.14200000e+04  1.71200000e+03
  3.89300000e+02  1.10000000e+02  3.55700000e+01  1.25400000e+01  4.64400000e+00
  5.11800000e-01  1.29300000e+00  1.78700000e-01  2.66300000e+01  5.94800000e+00
  1.74200000e+00  5.55000000e-01  1.72500000e-01  1.65400000e+00  4.69000000e-01
  1.09300000e+00  5.76000000e-02  4.91000000e-02  1.53300000e+04  2.29900000e+03
  5.22400000e+02  1.47300000e+02  4.75500000e+01  1.67600000e+01  6.20700000e+00
  6.88200000e-01  1.53300000e+04  2.29900000e+03  5.22400000e+02  1.47300000e+02
  4.75500000e+01  1.67600000e+01  6.20700000e+00  6.88200000e-01  1.75200000e+00
  2.38400000e-01  3.44600000e+01  7.74900000e+00  2.28000000e+00  7.15600000e-01
  2.14000000e-01  2.31400000e+00  6.45000000e-01  1.42800000e+00  7.37600000e-02
  5.97400000e-02
Contraction coefficients                   R   N=         146
  4.55816851e-05  3.54099339e-04  1.85792456e-03  7.76831999e-03  2.74225293e-02
  8.23815850e-02  2.01225078e-01  3.56772274e-01  3.49554450e-01  1.18263107e-01
  5.60176299e-03  4.83461175e-04  2.92017857e-05 -1.38905279e-05 -1.07679442e-04
 -5.67821742e-04 -2.37381982e-03 -8.54381497e-03 -2.63551299e-02 -7.05294555e-02
 -1.47902155e-01 -2.16188771e-01 -4.42642836e-02  5.19676504e-01  6.21047089e-01
 -7.80086241e-03  6.24207639e-06  4.83489267e-05  2.55308769e-04  1.06605275e-03
  3.84999200e-03  1.18844979e-02  3.21689111e-02  6.84279475e-02  1.04842346e-01
  2.17861552e-02 -3.19801029e-01 -6.55118240e-01  1.13073305e+00  1.00000000e+00
  1.00000000e+00  2.43607294e-03  1.95521334e-02  9.05454602e-02  2.63551192e-01
  4.50987440e-01  3.57295015e-01 -5.38541778e-03 -1.14159413e-03 -9.11475682e-03
 -4.37148745e-02 -1.29555965e-01 -2.41477740e-01 -1.59596061e-01  9.62348672e-01
  1.00000000e+00  1.00000000e+00  1.00000000e+00  1.00000000e+00  1.00000000e+00
  1.00000000e+00  1.00000000e+00  5.42430189e-04  4.19642790e-03  2.15409141e-02
  8.36149496e-02  2.39871619e-01  4.43751820e-01  3.53579696e-01 -9.17636608e-03
 -1.96392234e-04 -1.52595027e-03 -7.89044903e-03 -3.15148705e-02 -9.69100083e-02
 -2.20541526e-01 -2.96069113e-01  1.04050343e+00  1.00000000e+00  1.00000000e+00
  3.94263872e-02  2.44088985e-01  8.15492009e-01  1.00000000e+00  1.00000000e+00
  1.00000000e+00  1.00000000e+00  1.00000000e+00  1.00000000e+00  1.00000000e+00
  5.34980914e-04  4.13766310e-03  2.12509149e-02  8.25762988e-02  2.38413273e-01
  4.43431666e-01  3.55431909e-01 -8.70290176e-03 -1.98776985e-04 -1.54700349e-03
 -7.99256330e-03 -3.20255651e-02 -9.91102048e-02 -2.28292775e-01 -2.98182763e-01
  1.03700052e+00  1.00000000e+00  1.00000000e+00  3.98072123e-02  2.49002660e-01
  8.10479727e-01  1.00000000e+00  1.00000000e+00  1.00000000e+00  1.00000000e+00
  1.00000000e+00  1.00000000e+00  1.00000000e+00  5.20198307e-04  4.02334478e-03
  2.07290833e-02  8.10823271e-02  2.36226352e-01  4.43518209e-01  3.58670589e-01
 -8.34979724e-03 -1.97236012e-04 -1.53501070e-03 -7.95118391e-03 -3.21134529e-02
 -1.00269643e-01 -2.34047112e-01 -3.01410928e-01  1.03491965e+00  1.00000000e+00
  1.00000000e+00  4.11634896e-02  2.57762836e-01  8.02419274e-01  1.00000000e+00
  1.00000000e+00  1.00000000e+00  1.00000000e+00  1.00000000e+00  1.00000000e+00
  1.00000000e+00
Coordinates of each shell                  R   N=         150
  0.00000000e+00  0.00000000e+00 -8.87774062e+00  0.00000000e+00  0.00000000e+00
 -8.87774062e+00  0.00000000e+00  0.00000000e+00 -8.87774062e+00  0.00000000e+00
  0.00000000e+00 -8.87774062e+00  0.00000000e+00  0.00000000e+00 -8.87774062e+00
  0.00000000e+00  0.00000000e+00 -8.87774062e+00  0.00000000e+00  0.00000000e+00
 -8.87774062e+00  0.00000000e+00  0.00000000e+00 -8.87774062e+00  0.00000000e+00
  0.00000000e+00 -8.87774062e+00  0.00000000e+00  0.00000000e+00 -8.87774062e+00
  0.00000000e+00  0.00000000e+00 -8.87774062e+00  0.00000000e+00  0.00000000e+00
 -8.87774062e+00  0.00000000e+00  0.00000000e+00 -8.87774062e+00  0.00000000e+00
  0.00000000e+00 -8.87774062e+00  0.00000000e+00  0.00000000e+00  0.00000000e+00
  0.00000000e+00  0.00000000e+00  0.00000000e+00  0.00000000e+00  0.00000000e+00
  0.00000000e+00  0.00000000e+00  0.00000000e+00  0.00000000e+00  0.00000000e+00
  0.00000000e+00  0.00000000e+00  0.00000000e+00  0.00000000e+00  0.00000000e+00
  0.00000000e+00  0.00000000e+00  0.00000000e+00  0.00000000e+00  0.00000000e+00
  0.00000000e+00  0.00000000e+00  0.00000000e+00  0.00000000e+00  0.00000000e+00
  0.00000000e+00  0.00000000e+00  0.00000000e+00  0.00000000e+00  0.00000000e+00
  0.00000000e+00  0.00000000e+00  0.00000000e+00  0.00000000e+00  0.00000000e+00
  2.32812559e+00  0.00000000e+00  0.00000000e+00  2.32812559e+00  0.00000000e+00
  0.00000000e+00  2.32812559e+00  0.00000000e+00  0.00000000e+00  2.32812559e+00
  0.00000000e+00  0.00000000e+00  2.32812559e+00  0.00000000e+00  0.00000000e+00
  2.32812559e+00  0.00000000e+00  0.00000000e+00  2.32812559e+00  0.00000000e+00
  0.00000000e+00  2.32812559e+00  0.00000000e+00  0.00000000e+00  2.32812559e+00
  0.00000000e+00  0.00000000e+00  2.32812559e+00  0.00000000e+00  0.00000000e+00
  2.32812559e+00  0.00000000e+00  0.00000000e+00  2.32812559e+00  0.00000000e+00
  0.00000000e+00 -2.22128803e+00  0.00000000e+00  0.00000000e+00 -2.22128803e+00
  0.00000000e+00  0.00000000e+00 -2.22128803e+00  0.00000000e+00  0.00000000e+00
 -2.22128803e+00  0.00000000e+00  0.00000000e+00 -2.22128803e+00  0.00000000e+00
  0.00000000e+00 -2.22128803e+00  0.00000000e+00  0.00000000e+00 -2.22128803e+00
  0.00000000e+00  0.00000000e+00 -2.22128803e+00  0.00000000e+00  0.00000000e+00
 -2.22128803e+00  0.00000000e+00  0.00000000e+00 -2.22128803e+00  0.00000000e+00
  0.00000000e+00 -2.22128803e+00  0.00000000e+00  0.00000000e+00 -2.22128803e+00
Total Energy                               R     -6.948354210768204e+02
alpha orbital energies                     R   N=         140
 -1.18610188e+02 -2.06975895e+01 -1.56529147e+01 -1.23212986e+01 -1.14131120e+01
 -9.57027634e+00 -9.57027487e+00 -9.57025915e+00 -1.53676682e+00 -1.29216548e+00
 -1.27617794e+00 -8.07291259e-01 -7.28518505e-01 -6.96435484e-01 -6.46973306e-01
 -5.89792588e-01 -5.89744707e-01 -5.89276716e-01 -5.54588628e-01 -4.95217904e-01
  5.27943967e-02  7.17226643e-02  7.46451576e-02  7.87942500e-02  1.23735456e-01
  1.34527479e-01  1.36006067e-01  1.58454321e-01  1.69383447e-01  1.75170679e-01
  2.03739274e-01  2.17202558e-01  2.37325419e-01  2.42079390e-01  2.42477299e-01
  2.49611858e-01  2.80874868e-01  3.25184853e-01  4.64874193e-01  5.65319640e-01
  5.70038961e-01  6.01278506e-01  7.16285936e-01  7.17002711e-01  7.26835416e-01
  7.29077307e-01  7.29077412e-01  7.33869904e-01  7.36617783e-01  7.50146370e-01
  7.50331647e-01  7.68701516e-01  7.69018237e-01  7.88401862e-01  7.89757309e-01
  8.89100481e-01  9.67153639e-01  9.83009420e-01  9.85618344e-01  1.14257591e+00
  1.15615322e+00  1.16737435e+00  1.17413684e+00  1.27284347e+00  1.30064722e+00
  1.30211079e+00  1.76762377e+00  1.78529632e+00  1.78639496e+00  1.82501568e+00
  1.84893361e+00  2.13977035e+00  2.33486196e+00  2.36256610e+00  2.37630306e+00
  2.44206143e+00  2.45190983e+00  2.54739541e+00  2.54739541e+00  2.55939750e+00
  2.55963584e+00  2.59872938e+00  2.64364485e+00  2.80217819e+00  2.85238015e+00
  2.85238148e+00  2.92449499e+00  2.92449499e+00  2.92467212e+00  2.92467215e+00
  2.92543877e+00  2.92547061e+00  2.93098184e+00  3.04333545e+00  3.04340593e+00
  3.08243723e+00  3.08270603e+00  3.10789459e+00  3.13765367e+00  3.15503762e+00
  3.18052928e+00  3.18059160e+00  3.51197038e+00  3.55196823e+00  3.73336863e+00
  3.79869076e+00  3.82204227e+00  3.85765245e+00  4.23880200e+00  4.23882948e+00
  4.39588453e+00  4.42795224e+00  4.64800275e+00  4.64831290e+00  4.88183195e+00
  4.89100293e+00  4.91878730e+00  5.17313941e+00  5.35425247e+00  5.38750989e+00
  5.48843150e+00  5.48846583e+00  5.58414529e+00  5.85080607e+00  5.87830578e+00
  5.97638993e+00  5.97665931e+00  6.06336731e+00  6.16263205e+00  6.70878594e+00
  6.70879501e+00  6.96105549e+00  7.21929135e+00  7.24701415e+00  7.49063436e+00
  7.51217917e+00  7.51770119e+00  7.97230478e+00  1.41464620e+01  1.49251438e+01
alpha MO coefficients (C)                  R   N=       19600
  1.00002534e+00  7.00857091e-06  9.40302742e-06 -1.51213898e-04 -3.80201625e-05
  0.00000000e+00  0.00000000e+00 -4.27824337e-07  0.00000000e+00  0.00000000e+00
  1.21487573e-09  0.00000000e+00  0.00000000e+00  1.94237386e-07  0.00000000e+00
  0.00000000e+00 -3.26249317e-07  2.46757364e-07  0.00000000e+00  0.00000000e+00
  4.55446809e-10  0.00000000e+00 -1.48858380e-07  0.00000000e+00  0.00000000e+00
 -1.87560772e-09  0.00000000e+00  8.18617077e-09  0.00000000e+00  0.00000000e+00
  5.34989723e-10  0.00000000e+00  0.00000000e+00  0.00000000e+00  1.18284794e-05
  0.00000000e+00  0.00000000e+00  2.71751671e-06  8.41237328e-07  1.59641216e-06
  5.72130581e-08 -6.28269599e-06  0.00000000e+00  0.00000000e+00  5.39153146e-08
  0.00000000e+00  0.00000000e+00 -7.27719463e-07  0.00000000e+00  0.00000000e+00
  4.95758039e-06  2.28725761e-07  0.00000000e+00  0.00000000e+00 -1.26606141e-11
  0.00000000e+00 -8.99802696e-07  0.00000000e+00  0.00000000e+00  9.44924802e-12
  0.00000000e+00 -2.36174272e-07  0.00000000e+00  0.00000000e+00  2.57949667e-12
  0.00000000e+00  0.00000000e+00  0.00000000e+00 -2.49609244e-06  0.00000000e+00
  0.00000000e+00  4.13144941e-06  4.88182035e-07  9.10101059e-07  4.05888237e-08
 -1.37394674e-06  0.00000000e+00  0.00000000e+00  4.64762892e-08  0.00000000e+00
  0.00000000e+00 -7.09470555e-07  0.00000000e+00  0.00000000e+00  1.56348680e-06
  8.10225143e-08  0.00000000e+00  0.00000000e+00 -7.44088360e-12  0.00000000e+00
 -2.10090551e-07  0.00000000e+00  0.00000000e+00 -1.24904746e-11  0.00000000e+00
  9.46122914e-08  0.00000000e+00  0.00000000e+00  1.40635451e-11  0.00000000e+00
  0.00000000e+00  0.00000000e+00 -7.40929780e-06  0.00000000e+00  0.00000000e+00
  4.07290972e-07 -3.87749670e-08 -5.92377020e-08  4.28475489e-08  1.56072590e-06
  0.00000000e+00  0.00000000e+00  2.22838220e-08  0.00000000e+00  0.00000000e+00
 -3.57534305e-07  0.00000000e+00  0.00000000e+00  9.69368004e-07  1.71128221e-08
  0.00000000e+00  0.00000000e+00 -8.09569929e-11  0.00000000e+00 -3.49472189e-07
  0.00000000e+00  0.00000000e+00 -1.24928223e-10  0.00000000e+00 -1.01685971e-07
  0.00000000e+00  0.00000000e+00  6.26691325e-11  0.00000000e+00  0.00000000e+00
  0.00000000e+00  1.11659641e-05  0.00000000e+00  0.00000000e+00  6.10358631e-06
 -4.91855210e-06 -2.76036700e-05 -3.23268721e-05  9.62459636e-06  6.73954212e-05
  0.00000000e+00  0.00000000e+00  1.01158830e-05  0.00000000e+00  0.00000000e+00
  1.68244857e-05  0.00000000e+00  0.00000000e+00 -8.67229473e-06  0.00000000e+00
  0.00000000e+00 -9.98424714e-06 -9.24130991e-07  0.00000000e+00  0.00000000e+00
  1.78653903e-09  0.00000000e+00  1.04740983e-06  0.00000000e+00  0.00000000e+00
 -1.62625105e-09  0.00000000e+00  4.09925727e-07  0.00000000e+00  0.00000000e+00
  9.26273873e-10  0.00000000e+00  0.00000000e+00  0.00000000e+00 -7.72516358e-05
  0.00000000e+00  0.00000000e+00 -2.80142164e-05  9.13625939e-04  1.92241279e-03
 -8.48398738e-05  2.48801034e-03  0.00000000e+00  0.00000000e+00 -3.96607217e-04
  0.00000000e+00  0.00000000e+00 -1.52338791e-03  0.00000000e+00  0.00000000e+00
  2.24890282e-03  4.72644857e-04  0.00000000e+00  0.00000000e+00  1.38944917e-06
  0.00000000e+00  1.45089616e-03  0.00000000e+00  0.00000000e+00 -1.42154950e-05
  0.00000000e+00  3.41955363e-05  0.00000000e+00  0.00000000e+00  8.43990228e-06
  0.00000000e+00  0.00000000e+00  0.00000000e+00  1.28817670e-03  0.00000000e+00
  0.00000000e+00 -1.17484134e-04 -2.62853867e-04 -4.96409558e-04  6.85428404e-06
 -2.27191203e-03  0.00000000e+00  0.00000000e+00 -2.18821314e-06  0.00000000e+00
  0.00000000e+00  3.74056038e-04  0.00000000e+00  0.00000000e+00  6.72845349e-04
 -7.75707612e-05  0.00000000e+00  0.00000000e+00 -1.03617023e-06  0.00000000e+00
 -3.06111667e-05  0.00000000e+00  0.00000000e+00  2.03017519e-06  0.00000000e+00
  7.82177455e-05  0.00000000e+00  0.00000000e+00  7.81538314e-07  0.00000000e+00
  0.00000000e+00  0.00000000e+00 -1.78006423e-03  0.00000000e+00  0.00000000e+00
  5.70414977e-04  9.74834501e-01 -1.95544080e-03  4.41982743e-02  2.55872105e-03
  0.00000000e+00  0.00000000e+00  2.16076761e-03  0.00000000e+00  0.00000000e+00
 -2.14001458e-03  0.00000000e+00  0.00000000e+00 -1.07395046e-04  1.26837187e-05
  0.00000000e+00  0.00000000e+00 -2.63239606e-04  0.00000000e+00 -6.48165427e-04
  0.00000000e+00  0.00000000e+00  7.17393642e-05  0.00000000e+00 -1.02356409e-04
  0.00000000e+00  0.00000000e+00  6.07448362e-06  0.00000000e+00  0.00000000e+00
  0.00000000e+00 -4.01477564e-04  0.00000000e+00  0.00000000e+00  1.51634173e-05
 -2.56771776e-06 -1.44479217e-05 -1.69180823e-05  4.66068967e-06  4.16242591e-05
  0.00000000e+00  0.00000000e+00  3.88762475e-06  0.00000000e+00  0.00000000e+00
  7.06441170e-06  0.00000000e+00  0.00000000e+00 -2.44416767e-06  0.00000000e+00
  0.00000000e+00 -1.74477830e-05  1.45303138e-06  0.00000000e+00  0.00000000e+00
 -4.61556464e-10  0.00000000e+00 -5.06058855e-08  0.00000000e+00  0.00000000e+00
  5.42686763e-10  0.00000000e+00  7.35784279e-07  0.00000000e+00  0.00000000e+00
 -2.37726990e-10  0.00000000e+00  0.00000000e+00  0.00000000e+00 -1.23760256e-04
  0.00000000e+00  0.00000000e+00 -4.31791393e-05  9.74719193e-04  1.89474747e-03
  9.70539041e-05  2.11079987e-03  0.00000000e+00  0.00000000e+00  5.24829034e-04
  0.00000000e+00  0.00000000e+00 -7.50613691e-04  0.00000000e+00  0.00000000e+00
 -3.15720567e-03  2.77130616e-04  0.00000000e+00  0.00000000e+00  4.31945600e-06
  0.00000000e+00  1.32460379e-03  0.00000000e+00  0.00000000e+00 -2.00778931e-05
  0.00000000e+00 -7.64833824e-04  0.00000000e+00  0.00000000e+00 -2.33589479e-06
  0.00000000e+00  0.00000000e+00  0.00000000e+00  1.69164339e-03  0.00000000e+00
  0.00000000e+00  2.12751138e-04  9.75722791e-01 -1.67245440e-03  4.32866540e-02
  5.39252876e-03  0.00000000e+00  0.00000000e+00 -2.75660193e-03  0.00000000e+00
  0.00000000e+00  1.65101796e-03  0.00000000e+00  0.00000000e+00 -9.00664691e-04
  8.93102322e-05  0.00000000e+00  0.00000000e+00 -4.14916464e-04  0.00000000e+00
 -3.77586145e-04  0.00000000e+00  0.00000000e+00  9.63123518e-05  0.00000000e+00
  2.53439103e-05  0.00000000e+00  0.00000000e+00  5.96686493e-06  0.00000000e+00
  0.00000000e+00  0.00000000e+00 -1.01630580e-03  0.00000000e+00  0.00000000e+00
  4.90350529e-05 -4.27496983e-04 -8.11004766e-04  4.38761467e-05 -3.13260813e-03
  0.00000000e+00  0.00000000e+00  3.00268514e-05  0.00000000e+00  0.00000000e+00
 -1.01421834e-03  0.00000000e+00  0.00000000e+00 -1.01292771e-03 -8.47635998e-05
  0.00000000e+00  0.00000000e+00 -1.39813182e-06  0.00000000e+00 -3.17510386e-04
  0.00000000e+00  0.00000000e+00  4.42380880e-06  0.00000000e+00 -1.06472980e-04
  0.00000000e+00  0.00000000e+00  8.50909084e-07  0.00000000e+00  0.00000000e+00
  0.00000000e+00 -2.85168101e-03  0.00000000e+00  0.00000000e+00 -8.75622982e-04
 -1.21544442e-04  9.31983897e-01 -7.78718554e-04  8.81926786e-02  3.56906274e-03
  0.00000000e+00  0.00000000e+00 -3.94858293e-05  0.00000000e+00  0.00000000e+00
 -1.64733675e-05  0.00000000e+00  0.00000000e+00 -4.36598515e-07  0.00000000e+00
  0.00000000e+00  3.69939047e-05 -1.51485645e-05  0.00000000e+00  0.00000000e+00
  4.97653100e-08  0.00000000e+00  4.44678934e-06  0.00000000e+00  0.00000000e+00
 -1.71551754e-07  0.00000000e+00 -3.04018113e-07  0.00000000e+00  0.00000000e+00
 -3.40639275e-08  0.00000000e+00  0.00000000e+00  0.00000000e+00 -9.81703897e-04
  0.00000000e+00  0.00000000e+00 -2.10469798e-04 -5.43085858e-05 -1.04886780e-04
 -6.25156800e-06  3.72182912e-04  0.00000000e+00  0.00000000e+00 -4.40561237e-06
  0.00000000e+00  0.00000000e+00  7.16013404e-05  0.00000000e+00  0.00000000e+00
 -3.22891414e-04 -1.29954632e-05  0.00000000e+00  0.00000000e+00  2.42368272e-09
  0.00000000e+00  5.01439880e-05  0.00000000e+00  0.00000000e+00 -5.07283594e-09
  0.00000000e+00  1.66530370e-05  0.00000000e+00  0.00000000e+00 -2.84738409e-09
  0.00000000e+00  0.00000000e+00  0.00000000e+00  1.74711283e-04  0.00000000e+00
  0.00000000e+00 -3.30761094e-04 -2.86094433e-05 -5.46394338e-05 -4.59211546e-06
  7.94104045e-05  0.00000000e+00  0.00000000e+00 -3.90800606e-06  0.00000000e+00
  0.00000000e+00  5.42697304e-05  0.00000000e+00  0.00000000e+00 -1.10919656e-04
 -5.14237403e-06  0.00000000e+00  0.00000000e+00  2.72032236e-09  0.00000000e+00
  9.07563920e-06  0.00000000e+00  0.00000000e+00  5.27479965e-10  0.00000000e+00
 -4.75369569e-06  0.00000000e+00  0.00000000e+00 -2.79683633e-09  0.00000000e+00
  0.00000000e+00  0.00000000e+00  5.57435715e-04  0.00000000e+00  0.00000000e+00
 -1.88387279e-05  1.56159634e-08 -8.34077647e-07 -2.65732474e-06 -5.11044813e-05
  0.00000000e+00  0.00000000e+00 -1.25440153e-06  0.00000000e+00  0.00000000e+00
  2.57702598e-05  0.00000000e+00  0.00000000e+00 -4.30528258e-05 -1.67412285e-06
  0.00000000e+00  0.00000000e+00  5.33976227e-09  0.00000000e+00  2.75042020e-05
  0.00000000e+00  0.00000000e+00  9.54754013e-09  0.00000000e+00  6.38712213e-06
  0.00000000e+00  0.00000000e+00 -3.18702999e-09  0.00000000e+00  0.00000000e+00
  0.00000000e+00 -7.73532197e-04  0.00000000e+00  0.00000000e+00 -4.24470224e-04
 -8.83004888e-06 -4.92942060e-05 -5.64602598e-05  1.88225437e-05  1.39396012e-04
  0.00000000e+00  0.00000000e+00  7.57570122e-06  0.00000000e+00  0.00000000e+00
  1.47106876e-05  0.00000000e+00  0.00000000e+00 -3.14466336e-06  0.00000000e+00
  0.00000000e+00 -6.09177534e-05 -1.37685114e-05  0.00000000e+00  0.00000000e+00
 -1.53576904e-10  0.00000000e+00  4.82141678e-06  0.00000000e+00  0.00000000e+00
  1.40492181e-10  0.00000000e+00  1.57322107e-06  0.00000000e+00  0.00000000e+00
 -1.42333800e-10  0.00000000e+00  0.00000000e+00  0.00000000e+00 -3.43549806e-04
  0.00000000e+00  0.00000000e+00 -1.38998780e-04  9.78177147e-01  5.91730160e-04
  4.14039671e-02  5.12383690e-03  0.00000000e+00  0.00000000e+00 -7.71970151e-04
  0.00000000e+00  0.00000000e+00  1.22215043e-03  0.00000000e+00  0.00000000e+00
 -2.43486220e-05  1.82340724e-03  0.00000000e+00  0.00000000e+00  5.94556595e-05
  0.00000000e+00 -6.54413675e-04  0.00000000e+00  0.00000000e+00  5.31673899e-06
  0.00000000e+00  6.33773861e-06  0.00000000e+00  0.00000000e+00 -2.12829118e-05
  0.00000000e+00  0.00000000e+00  0.00000000e+00  1.57908396e-03  0.00000000e+00
  0.00000000e+00  2.76526887e-04 -4.03026585e-04  3.49227251e-04  3.58691894e-04
 -1.22771328e-03  0.00000000e+00  0.00000000e+00 -3.69049538e-04  0.00000000e+00
  0.00000000e+00  2.88116732e-04  0.00000000e+00  0.00000000e+00  8.03711842e-04
 -6.79406863e-05  0.00000000e+00  0.00000000e+00 -3.50218968e-06  0.00000000e+00
 -6.58938849e-04  0.00000000e+00  0.00000000e+00  4.32226063e-06  0.00000000e+00
  1.84737077e-04  0.00000000e+00  0.00000000e+00  2.17750790e-06  0.00000000e+00
  0.00000000e+00  0.00000000e+00 -1.21249970e-03  0.00000000e+00  0.00000000e+00
  6.69906549e-05 -1.81733727e-04  6.08307704e-04  3.46663539e-04  3.92752013e-04
  0.00000000e+00  0.00000000e+00  4.66370922e-04  0.00000000e+00  0.00000000e+00
  1.16620638e-04  0.00000000e+00  0.00000000e+00  5.40719349e-06  6.60255079e-05
  0.00000000e+00  0.00000000e+00 -1.51918320e-06  0.00000000e+00 -5.33326854e-04
  0.00000000e+00  0.00000000e+00 -7.88259636e-06  0.00000000e+00 -1.04526130e-04
  0.00000000e+00  0.00000000e+00 -7.00238764e-06  0.00000000e+00  0.00000000e+00
  0.00000000e+00 -2.44199065e-03  0.00000000e+00  0.00000000e+00 -1.36651682e-03
  0.00000000e+00  0.00000000e+00  0.00000000e+00  0.00000000e+00  0.00000000e+00
  0.00000000e+00  9.72515488e-01  0.00000000e+00  0.00000000e+00 -4.77453603e-04
  0.00000000e+00  0.00000000e+00  5.68489948e-02  0.00000000e+00  0.00000000e+00
  2.38541784e-03  0.00000000e+00  0.00000000e+00  0.00000000e+00 -1.34585658e-06
  0.00000000e+00  0.00000000e+00  0.00000000e+00  0.00000000e+00 -2.36643196e-06
  0.00000000e+00  0.00000000e+00  0.00000000e+00  0.00000000e+00 -1.07579378e-06
  0.00000000e+00  0.00000000e+00  0.00000000e+00 -8.42725779e-08  0.00000000e+00
  0.00000000e+00 -7.22705832e-04  0.00000000e+00  0.00000000e+00  0.00000000e+00
  0.00000000e+00  0.00000000e+00  0.00000000e+00  8.17386560e-07  0.00000000e+00
  0.00000000e+00 -7.47095024e-06  0.00000000e+00  0.00000000e+00 -3.25414271e-05
  0.00000000e+00  0.00000000e+00  0.00000000e+00  1.87088812e-06  0.00000000e+00
  0.00000000e+00  0.00000000e+00  0.00000000e+00 -2.44823042e-05  0.00000000e+00
  0.00000000e+00  0.00000000e+00  0.00000000e+00 -3.10561542e-06  0.00000000e+00
  0.00000000e+00  0.00000000e+00  6.95754380e-10  0.00000000e+00  0.00000000e+00
  2.17645379e-04  0.00000000e+00  0.00000000e+00  0.00000000e+00  0.00000000e+00
  0.00000000e+00  0.00000000e+00  2.16844927e-06  0.00000000e+00  0.00000000e+00
 -7.24150522e-06  0.00000000e+00  0.00000000e+00  6.27189985e-05  0.00000000e+00
  0.00000000e+00  0.00000000e+00  1.63933787e-06  0.00000000e+00  0.00000000e+00
  0.00000000e+00  0.00000000e+00 -1.42336612e-05  0.00000000e+00  0.00000000e+00
  0.00000000e+00  0.00000000e+00  2.94632670e-06  0.00000000e+00  0.00000000e+00
  0.00000000e+00  1.36825831e-09  0.00000000e+00  0.00000000e+00 -1.69578853e-04
  0.00000000e+00  0.00000000e+00  0.00000000e+00  0.00000000e+00  0.00000000e+00
  0.00000000e+00  6.79195535e-07  0.00000000e+00  0.00000000e+00 -4.48985578e-06
  0.00000000e+00  0.00000000e+00  9.81694578e-06  0.00000000e+00  0.00000000e+00
  0.00000000e+00  9.66231350e-07  0.00000000e+00  0.00000000e+00  0.00000000e+00
  0.00000000e+00 -4.16910858e-06  0.00000000e+00  0.00000000e+00  0.00000000e+00
  0.00000000e+00  2.34043740e-07  0.00000000e+00  0.00000000e+00  0.00000000e+00
  4.85786893e-10  0.00000000e+00  0.00000000e+00 -1.79512706e-05  0.00000000e+00
  0.00000000e+00  0.00000000e+00  0.00000000e+00  0.00000000e+00  0.00000000e+00
  9.72516010e-01  0.00000000e+00  0.00000000e+00 -4.77178676e-04  0.00000000e+00
  0.00000000e+00  5.68481311e-02  0.00000000e+00  0.00000000e+00  2.38525166e-03
  0.00000000e+00  0.00000000e+00  0.00000000e+00 -1.39202678e-06  0.00000000e+00
  0.00000000e+00  0.00000000e+00  0.00000000e+00 -2.36690673e-06  0.00000000e+00
  0.00000000e+00  0.00000000e+00  0.00000000e+00 -1.04223212e-06  0.00000000e+00
  0.00000000e+00  0.00000000e+00 -8.42719744e-08  0.00000000e+00  0.00000000e+00
 -7.22650809e-04  0.00000000e+00  0.00000000e+00  0.00000000e+00  0.00000000e+00
  0.00000000e+00  0.00000000e+00  8.13692920e-07  0.00000000e+00  0.00000000e+00
 -7.45278949e-06  0.00000000e+00  0.00000000e+00 -3.25503846e-05  0.00000000e+00
  0.00000000e+00  0.00000000e+00  1.87000849e-06  0.00000000e+00  0.00000000e+00
  0.00000000e+00  0.00000000e+00 -2.44613161e-05  0.00000000e+00  0.00000000e+00
  0.00000000e+00  0.00000000e+00 -3.10002010e-06  0.00000000e+00  0.00000000e+00
  0.00000000e+00  7.03707175e-10  0.00000000e+00  0.00000000e+00  2.17593500e-04
  0.00000000e+00  0.00000000e+00  0.00000000e+00  0.00000000e+00  0.00000000e+00
  0.00000000e+00  2.16828358e-06  0.00000000e+00  0.00000000e+00 -7.24162127e-06
  0.00000000e+00  0.00000000e+00  6.26838499e-05  0.00000000e+00  0.00000000e+00
  0.00000000e+00  1.63825598e-06  0.00000000e+00  0.00000000e+00  0.00000000e+00
  0.00000000e+00 -1.42173294e-05  0.00000000e+00  0.00000000e+00  0.00000000e+00
  0.00000000e+00  2.94150914e-06  0.00000000e+00  0.00000000e+00  0.00000000e+00
  1.39615733e-09  0.00000000e+00  0.00000000e+00 -1.69534521e-04  0.00000000e+00
  0.00000000e+00  0.00000000e+00  0.00000000e+00  0.00000000e+00  0.00000000e+00
  6.85645823e-07  0.00000000e+00  0.00000000e+00 -4.48278075e-06  0.00000000e+00
  0.00000000e+00  9.83303449e-06  0.00000000e+00  0.00000000e+00  0.00000000e+00
  9.65485839e-07  0.00000000e+00  0.00000000e+00  0.00000000e+00  0.00000000e+00
 -4.17114443e-06  0.00000000e+00  0.00000000e+00  0.00000000e+00  0.00000000e+00
  2.32757232e-07  0.00000000e+00  0.00000000e+00  0.00000000e+00  4.32952658e-10
  0.00000000e+00  0.00000000e+00 -1.79263386e-05  0.00000000e+00  0.00000000e+00
  4.43963855e-07  3.21781898e-05 -2.85998110e-06  6.10135558e-06 -9.41229986e-05
  0.00000000e+00  0.00000000e+00  9.72430061e-01  0.00000000e+00  0.00000000e+00
 -6.39353946e-04  0.00000000e+00  0.00000000e+00  5.69000702e-02  0.00000000e+00
  0.00000000e+00  2.63882790e-03  4.66500452e-05  0.00000000e+00  0.00000000e+00
 -2.36041336e-08  0.00000000e+00 -2.35933558e-05  0.00000000e+00  0.00000000e+00
 -2.06398209e-09  0.00000000e+00  8.07563118e-07  0.00000000e+00  0.00000000e+00
 -7.69587765e-08  0.00000000e+00  0.00000000e+00  0.00000000e+00  3.54012338e-04