[Molden Format]
[Atoms] AU
Ar      1  18     0.0000000     0.0000000     9.2919761
C       2   6     0.0000000     0.0000000     0.0000000
N       3   7     0.0000000     0.0000000     2.3281256
O       4   8     0.0000000     0.0000000    -2.2212880
[GTO]
     1     0
s  13 1.0
  5.45000000E+05  4.55816851E-05
  8.16400000E+04  3.54099339E-04
  1.85800000E+04  1.85792456E-03
  5.26100000E+03  7.76831999E-03
  1.71700000E+03  2.74225293E-02
  6.19900000E+02  8.23815850E-02
  2.41600000E+02  2.01225078E-01
  9.97900000E+01  3.56772274E-01
  4.31500000E+01  3.49554450E-01
  1.91400000E+01  1.18263107E-01
  7.48800000E+00  5.60176299E-03
  3.20500000E+00  4.83461175E-04
  5.20400000E-01  2.92017857E-05
s  13 1.0
  5.45000000E+05 -1.38905279E-05
  8.16400000E+04 -1.07679442E-04
  1.85800000E+04 -5.67821742E-04
  5.26100000E+03 -2.37381982E-03
  1.71700000E+03 -8.54381497E-03
  6.19900000E+02 -2.63551299E-02
  2.41600000E+02 -7.05294555E-02
  9.97900000E+01 -1.47902155E-01
  4.31500000E+01 -2.16188771E-01
  1.91400000E+01 -4.42642836E-02
  7.48800000E+00  5.19676504E-01
  3.20500000E+00  6.21047089E-01
  5.20400000E-01 -7.80086241E-03
s  13 1.0
  5.45000000E+05  6.24207639E-06
  8.16400000E+04  4.83489267E-05
  1.85800000E+04  2.55308769E-04
  5.26100000E+03  1.06605275E-03
  1.71700000E+03  3.84999200E-03
  6.19900000E+02  1.18844979E-02
  2.41600000E+02  3.21689111E-02
  9.97900000E+01  6.84279475E-02
  4.31500000E+01  1.04842346E-01
  1.91400000E+01  2.17861552E-02
  7.48800000E+00 -3.19801029E-01
  3.20500000E+00 -6.55118240E-01
  5.20400000E-01  1.13073305E+00
s   1 1.0
  1.19600000E+00  1.00000000E+00
s   1 1.0
  1.95400000E-01  1.00000000E+00
p   7 1.0
  7.61800000E+02  2.43607294E-03
  1.80200000E+02  1.95521334E-02
  5.75000000E+01  9.05454602E-02
  2.12400000E+01  2.63551192E-01
  8.38800000E+00  4.50987440E-01
  3.41600000E+00  3.57295015E-01
  4.52300000E-01 -5.38541778E-03
p   7 1.0
  7.61800000E+02 -1.14159413E-03
  1.80200000E+02 -9.11475682E-03
  5.75000000E+01 -4.37148745E-02
  2.12400000E+01 -1.29555965E-01
  8.38800000E+00 -2.41477740E-01
  3.41600000E+00 -1.59596061E-01
  4.52300000E-01  9.62348672E-01
p   1 1.0
  1.20600000E+00  1.00000000E+00
p   1 1.0
  1.54500000E-01  1.00000000E+00
d   1 1.0
  4.10000000E-01  1.00000000E+00
d   1 1.0
  1.25400000E+00  1.00000000E+00
f   1 1.0
  8.90000000E-01  1.00000000E+00
s   1 1.0
  6.85000000E-02  1.00000000E+00
p   1 1.0
  4.87000000E-02  1.00000000E+00
 
     2     0
s   8 1.0
  8.23600000E+03  5.42430189E-04
  1.23500000E+03  4.19642790E-03
  2.80800000E+02  2.15409141E-02
  7.92700000E+01  8.36149496E-02
  2.55900000E+01  2.39871619E-01
  8.99700000E+00  4.43751820E-01
  3.31900000E+00  3.53579696E-01
  3.64300000E-01 -9.17636608E-03
s   8 1.0
  8.23600000E+03 -1.96392234E-04
  1.23500000E+03 -1.52595027E-03
  2.80800000E+02 -7.89044903E-03
  7.92700000E+01 -3.15148705E-02
  2.55900000E+01 -9.69100083E-02
  8.99700000E+00 -2.20541526E-01
  3.31900000E+00 -2.96069113E-01
  3.64300000E-01  1.04050343E+00
s   1 1.0
  9.05900000E-01  1.00000000E+00
s   1 1.0
  1.28500000E-01  1.00000000E+00
p   3 1.0
  1.87100000E+01  3.94263872E-02
  4.13300000E+00  2.44088985E-01
  1.20000000E+00  8.15492009E-01
p   1 1.0
  3.82700000E-01  1.00000000E+00
p   1 1.0
  1.20900000E-01  1.00000000E+00
d   1 1.0
  1.09700000E+00  1.00000000E+00
d   1 1.0
  3.18000000E-01  1.00000000E+00
f   1 1.0
  7.61000000E-01  1.00000000E+00
s   1 1.0
  4.40200000E-02  1.00000000E+00
p   1 1.0
  3.56900000E-02  1.00000000E+00
 
     3     0
s   8 1.0
  1.14200000E+04  5.34980914E-04
  1.71200000E+03  4.13766310E-03
  3.89300000E+02  2.12509149E-02
  1.10000000E+02  8.25762988E-02
  3.55700000E+01  2.38413273E-01
  1.25400000E+01  4.43431666E-01
  4.64400000E+00  3.55431909E-01
  5.11800000E-01 -8.70290176E-03
s   8 1.0
  1.14200000E+04 -1.98776985E-04
  1.71200000E+03 -1.54700349E-03
  3.89300000E+02 -7.99256330E-03
  1.10000000E+02 -3.20255651E-02
  3.55700000E+01 -9.91102048E-02
  1.25400000E+01 -2.28292775E-01
  4.64400000E+00 -2.98182763E-01
  5.11800000E-01  1.03700052E+00
s   1 1.0
  1.29300000E+00  1.00000000E+00
s   1 1.0
  1.78700000E-01  1.00000000E+00
p   3 1.0
  2.66300000E+01  3.98072123E-02
  5.94800000E+00  2.49002660E-01
  1.74200000E+00  8.10479727E-01
p   1 1.0
  5.55000000E-01  1.00000000E+00
p   1 1.0
  1.72500000E-01  1.00000000E+00
d   1 1.0
  1.65400000E+00  1.00000000E+00
d   1 1.0
  4.69000000E-01  1.00000000E+00
f   1 1.0
  1.09300000E+00  1.00000000E+00
s   1 1.0
  5.76000000E-02  1.00000000E+00
p   1 1.0
  4.91000000E-02  1.00000000E+00
 
     4     0
s   8 1.0
  1.53300000E+04  5.20198307E-04
  2.29900000E+03  4.02334478E-03
  5.22400000E+02  2.07290833E-02
  1.47300000E+02  8.10823271E-02
  4.75500000E+01  2.36226352E-01
  1.67600000E+01  4.43518209E-01
  6.20700000E+00  3.58670589E-01
  6.88200000E-01 -8.34979724E-03
s   8 1.0
  1.53300000E+04 -1.97236012E-04
  2.29900000E+03 -1.53501070E-03
  5.22400000E+02 -7.95118391E-03
  1.47300000E+02 -3.21134529E-02
  4.75500000E+01 -1.00269643E-01
  1.67600000E+01 -2.34047112E-01
  6.20700000E+00 -3.01410928E-01
  6.88200000E-01  1.03491965E+00
s   1 1.0
  1.75200000E+00  1.00000000E+00
s   1 1.0
  2.38400000E-01  1.00000000E+00
p   3 1.0
  3.44600000E+01  4.11634896E-02
  7.74900000E+00  2.57762836E-01
  2.28000000E+00  8.02419274E-01
p   1 1.0
  7.15600000E-01  1.00000000E+00
p   1 1.0
  2.14000000E-01  1.00000000E+00
d   1 1.0
  2.31400000E+00  1.00000000E+00
d   1 1.0
  6.45000000E-01  1.00000000E+00
f   1 1.0
  1.42800000E+00  1.00000000E+00
s   1 1.0
  7.37600000E-02  1.00000000E+00
p   1 1.0
  5.97400000E-02  1.00000000E+00
 
 
[5D]
[MO]
Ene=      0.00000000
Spin= Alpha
Occup=  1.999998
     1     -0.9994229881
     2     -0.0323145829
     3      0.0005848458
     4     -0.0028365038
     5      0.0002990172
     6     -0.0000000000
     7      0.0000000000
     8      0.0000049275
     9      0.0000000000
    10     -0.0000000000
    11     -0.0000030438
    12     -0.0000000000
    13      0.0000000000
    14     -0.0000000774
    15      0.0000000000
    16     -0.0000000000
    17      0.0000032031
    18     -0.0000005213
    19      0.0000000000
    20      0.0000000000
    21     -0.0000000154
    22     -0.0000000000
    23     -0.0000000631
    24      0.0000000000
    25      0.0000000000
    26      0.0000001459
    27     -0.0000000000
    28      0.0000000121
    29     -0.0000000000
    30      0.0000000000
    31      0.0000000062
    32      0.0000000000
    33      0.0000000000
    34      0.0000000000
    35      0.0000140000
    36     -0.0000000000
    37     -0.0000000000
    38     -0.0000013500
    39      0.0000017236
    40      0.0000029550
    41      0.0000020453
    42      0.0000550075
    43     -0.0000000000
    44      0.0000000000
    45      0.0000006588
    46     -0.0000000000
    47      0.0000000000
    48     -0.0000072024
    49     -0.0000000000
    50      0.0000000000
    51     -0.0000084924
    52      0.0000003867
    53     -0.0000000000
    54      0.0000000000
    55      0.0000000067
    56     -0.0000000000
    57      0.0000025595
    58      0.0000000000
    59      0.0000000000
    60     -0.0000006122
    61     -0.0000000000
    62     -0.0000015870
    63      0.0000000000
    64     -0.0000000000
    65     -0.0000000350
    66      0.0000000000
    67     -0.0000000000
    68      0.0000000000
    69      0.0000314681
    70      0.0000000000
    71      0.0000000000
    72      0.0000004975
    73      0.0000018265
    74      0.0000003283
    75      0.0000017202
    76     -0.0000034976
    77     -0.0000000000
    78      0.0000000000
    79     -0.0000015942
    80     -0.0000000000
    81     -0.0000000000
    82     -0.0000031648
    83     -0.0000000000
    84     -0.0000000000
    85      0.0000134390
    86      0.0000012286
    87      0.0000000000
    88     -0.0000000000
    89      0.0000000119
    90      0.0000000000
    91     -0.0000023498
    92      0.0000000000
    93      0.0000000000
    94     -0.0000000086
    95      0.0000000000
    96      0.0000008335
    97     -0.0000000000
    98     -0.0000000000
    99     -0.0000000316
   100     -0.0000000000
   101      0.0000000000
   102      0.0000000000
   103     -0.0000306116
   104     -0.0000000000
   105     -0.0000000000
   106      0.0000059897
   107     -0.0000032940
   108     -0.0000026269
   109     -0.0000006379
   110     -0.0000190359
   111     -0.0000000000
   112      0.0000000000
   113      0.0000002473
   114     -0.0000000000
   115      0.0000000000
   116      0.0000000789
   117     -0.0000000000
   118      0.0000000000
   119     -0.0000173649
   120      0.0000006176
   121      0.0000000000
   122     -0.0000000000
   123      0.0000000101
   124      0.0000000000
   125     -0.0000015463
   126     -0.0000000000
   127      0.0000000000
   128     -0.0000000242
   129     -0.0000000000
   130     -0.0000004015
   131     -0.0000000000
   132     -0.0000000000
   133     -0.0000000810
   134     -0.0000000000
   135      0.0000000000
   136     -0.0000000000
   137     -0.0000327723
   138     -0.0000000000
   139     -0.0000000000
   140     -0.0000077007
Ene=      0.00000000
Spin= Alpha
Occup=  1.999613
     1     -0.0349095910
     2      0.9306338890
     3     -0.0153011828
     4      0.0874456220
     5     -0.0058341479
     6     -0.0000000000
     7      0.0000000000
     8     -0.0024404559
     9      0.0000000000
    10     -0.0000000000
    11      0.0001647379
    12     -0.0000000000
    13      0.0000000000
    14     -0.0000863639
    15      0.0000000000
    16     -0.0000000000
    17     -0.0001283557
    18      0.0000034284
    19      0.0000000000
    20     -0.0000000000
    21      0.0000033502
    22     -0.0000000000
    23      0.0000161331
    24      0.0000000000
    25      0.0000000000
    26     -0.0000115456
    27      0.0000000000
    28      0.0000019955
    29     -0.0000000000
    30     -0.0000000000
    31     -0.0000001986
    32     -0.0000000000
    33      0.0000000000
    34      0.0000000000
    35     -0.0008549798
    36      0.0000000000
    37     -0.0000000000
    38      0.0001879371
    39     -0.0000716658
    40     -0.0000967664
    41      0.0001665292
    42     -0.0021021758
    43      0.0000000000
    44      0.0000000000
    45      0.0001396141
    46      0.0000000000
    47      0.0000000000
    48     -0.0001273327
    49      0.0000000000
    50      0.0000000000
    51      0.0006356194
    52      0.0000136778
    53      0.0000000000
    54     -0.0000000000
    55      0.0000027429
    56      0.0000000000
    57     -0.0001651225
    58      0.0000000000
    59     -0.0000000000
    60      0.0000319797
    61     -0.0000000000
    62     -0.0001771841
    63      0.0000000000
    64      0.0000000000
    65     -0.0000052891
    66     -0.0000000000
    67     -0.0000000000
    68     -0.0000000000
    69     -0.0007972657
    70      0.0000000000
    71      0.0000000000
    72      0.0000555963
    73     -0.0001682544
    74      0.0000242435
    75      0.0001931830
    76     -0.0000331660
    77      0.0000000000
    78      0.0000000000
    79     -0.0000574378
    80      0.0000000000
    81      0.0000000000
    82      0.0001431757
    83      0.0000000000
    84      0.0000000000
    85     -0.0004200653
    86      0.0001409619
    87     -0.0000000000
    88     -0.0000000000
    89      0.0000090106
    90     -0.0000000000
    91     -0.0000989977
    92     -0.0000000000
    93     -0.0000000000
    94     -0.0000040985
    95     -0.0000000000
    96      0.0001070025
    97      0.0000000000
    98     -0.0000000000
    99      0.0000048548
   100      0.0000000000
   101      0.0000000000
   102     -0.0000000000
   103      0.0005796656
   104      0.0000000000
   105     -0.0000000000
   106      0.0001785658
   107      0.0000884592
   108     -0.0000373753
   109     -0.0000127917
   110      0.0007159324
   111     -0.0000000000
   112      0.0000000000
   113     -0.0000638732
   114     -0.0000000000
   115      0.0000000000
   116     -0.0001511696
   117     -0.0000000000
   118      0.0000000000
   119      0.0007304521
   120      0.0000478187
   121      0.0000000000
   122      0.0000000000
   123      0.0000004362
   124      0.0000000000
   125     -0.0000533846
   126     -0.0000000000
   127      0.0000000000
   128     -0.0000043142
   129      0.0000000000
   130     -0.0000322660
   131     -0.0000000000
   132      0.0000000000
   133     -0.0000134172
   134     -0.0000000000
   135     -0.0000000000
   136     -0.0000000000
   137      0.0016448455
   138      0.0000000000
   139     -0.0000000000
   140      0.0004026075
Ene=      0.00000000
Spin= Alpha
Occup=  1.999518
     1      0.0000096607
     2     -0.0001055678
     3     -0.0000493557
     4     -0.0001234236
     5      0.0003283162
     6      0.0000000000
     7      0.0000000000
     8     -0.0004180651
     9     -0.0000000000
    10     -0.0000000000
    11     -0.0000350858
    12      0.0000000000
    13      0.0000000000
    14     -0.0000065393
    15     -0.0000000000
    16     -0.0000000000
    17      0.0000407496
    18     -0.0000457593
    19     -0.0000000000
    20      0.0000000000
    21      0.0000042325
    22     -0.0000000000
    23     -0.0000192616
    24     -0.0000000000
    25      0.0000000000
    26      0.0000213896
    27     -0.0000000000
    28     -0.0000010495
    29      0.0000000000
    30     -0.0000000000
    31     -0.0000023985
    32     -0.0000000000
    33     -0.0000000000
    34      0.0000000000
    35     -0.0005259195
    36     -0.0000000000
    37     -0.0000000000
    38      0.0001854686
    39      0.0053856948
    40      0.0023084424
    41     -0.0002839184
    42      0.0041524502
    43      0.0000000000
    44     -0.0000000000
    45     -0.0003849493
    46      0.0000000000
    47     -0.0000000000
    48     -0.0000695212
    49      0.0000000000
    50     -0.0000000000
    51      0.0033587923
    52      0.0003126996
    53     -0.0000000000
    54      0.0000000000
    55      0.0000137878
    56      0.0000000000
    57      0.0019410596
    58     -0.0000000000
    59      0.0000000000
    60     -0.0000719730
    61      0.0000000000
    62      0.0003466161
    63      0.0000000000
    64     -0.0000000000
    65      0.0000829850
    66     -0.0000000000
    67      0.0000000000
    68      0.0000000000
    69      0.0032238871
    70     -0.0000000000
    71     -0.0000000000
    72      0.0002265220
    73      0.0008041677
    74     -0.0017432543
    75      0.0003077692
    76     -0.0033202629
    77     -0.0000000000
    78     -0.0000000000
    79     -0.0001122828
    80     -0.0000000000
    81     -0.0000000000
    82      0.0010595882
    83     -0.0000000000
    84     -0.0000000000
    85      0.0010140926
    86     -0.0001669571
    87     -0.0000000000
    88      0.0000000000
    89      0.0000597129
    90     -0.0000000000
    91     -0.0000135936
    92      0.0000000000
    93      0.0000000000
    94      0.0001256584
    95     -0.0000000000
    96      0.0000915125
    97      0.0000000000
    98      0.0000000000
    99      0.0001329417
   100      0.0000000000
   101      0.0000000000
   102     -0.0000000000
   103     -0.0043525429
   104     -0.0000000000
   105      0.0000000000
   106      0.0016591431
   107      0.9742914039
   108     -0.0100568639
   109      0.0426132613
   110     -0.0013632083
   111      0.0000000000
   112     -0.0000000000
   113      0.0037731243
   114      0.0000000000
   115     -0.0000000000
   116      0.0001697087
   117      0.0000000000
   118     -0.0000000000
   119      0.0017056079
   120      0.0003459143
   121      0.0000000000
   122      0.0000000000
   123      0.0001414676
   124      0.0000000000
   125     -0.0005010482
   126      0.0000000000
   127     -0.0000000000
   128      0.0000518571
   129     -0.0000000000
   130     -0.0000225609
   131      0.0000000000
   132     -0.0000000000
   133     -0.0000052124
   134      0.0000000000
   135      0.0000000000
   136     -0.0000000000
   137     -0.0003903179
   138     -0.0000000000
   139      0.0000000000
   140      0.0001499385
Ene=      0.00000000
Spin= Alpha
Occup=  1.999422
     1     -0.0000000000
     2      0.0000000000
     3     -0.0000000000
     4      0.0000000000
     5     -0.0000000000
     6     -0.0000000006
     7     -0.9706274579
     8     -0.0000000001
     9      0.0000000000
    10      0.0165765595
    11      0.0000000000
    12     -0.0000000000
    13     -0.0520990242
    14     -0.0000000000
    15      0.0000000000
    16      0.0057491379
    17      0.0000000000
    18     -0.0000000000
    19      0.0000000000
    20      0.0000230755
    21      0.0000000000
    22      0.0000000000
    23      0.0000000000
    24     -0.0000000000
    25     -0.0000058330
    26      0.0000000000
    27      0.0000000000
    28      0.0000000000
    29     -0.0000000000
    30     -0.0000010314
    31     -0.0000000000
    32      0.0000000000
    33      0.0000000000
    34     -0.0000001179
    35     -0.0000000000
    36      0.0000000000
    37      0.0011564922
    38      0.0000000000
    39      0.0000000000
    40     -0.0000000000
    41      0.0000000000
    42     -0.0000000000
    43      0.0000000000
    44     -0.0000020040
    45     -0.0000000000
    46      0.0000000000
    47     -0.0000152237
    48     -0.0000000000
    49     -0.0000000000
    50      0.0000293958
    51      0.0000000000
    52      0.0000000000
    53     -0.0000000000
    54      0.0000012739
    55     -0.0000000000
    56      0.0000000000
    57     -0.0000000000
    58     -0.0000000000
    59     -0.0000301693
    60      0.0000000000
    61      0.0000000000
    62     -0.0000000000
    63     -0.0000000000
    64      0.0000027190
    65     -0.0000000000
    66     -0.0000000000
    67      0.0000000000
    68      0.0000000305
    69     -0.0000000000
    70     -0.0000000000
    71     -0.0000490082
    72     -0.0000000000
    73     -0.0000000000
    74      0.0000000000
    75     -0.0000000000
    76      0.0000000000
    77     -0.0000000000
    78      0.0000045412
    79      0.0000000000
    80     -0.0000000000
    81     -0.0000025781
    82     -0.0000000000
    83      0.0000000000
    84      0.0000360462
    85     -0.0000000000
    86     -0.0000000000
    87      0.0000000000
    88      0.0000022521
    89     -0.0000000000
    90     -0.0000000000
    91      0.0000000000
    92     -0.0000000000
    93     -0.0000052544
    94      0.0000000000
    95      0.0000000000
    96     -0.0000000000
    97      0.0000000000
    98      0.0000020454
    99      0.0000000000
   100     -0.0000000000
   101      0.0000000000
   102     -0.0000000303
   103     -0.0000000000
   104      0.0000000000
   105     -0.0001067545
   106      0.0000000000
   107      0.0000000000
   108     -0.0000000000
   109      0.0000000000
   110     -0.0000000000
   111      0.0000000000
   112     -0.0000001724
   113      0.0000000000
   114      0.0000000000
   115      0.0000081222
   116     -0.0000000000
   117      0.0000000000
   118     -0.0000463663
   119     -0.0000000000
   120      0.0000000000
   121      0.0000000000
   122      0.0000018462
   123     -0.0000000000
   124     -0.0000000000
   125     -0.0000000000
   126      0.0000000000
   127     -0.0000113270
   128     -0.0000000000
   129     -0.0000000000
   130     -0.0000000000
   131     -0.0000000000
   132     -0.0000012067
   133      0.0000000000
   134      0.0000000000
   135      0.0000000000
   136     -0.0000000009
   137      0.0000000000
   138      0.0000000000
   139      0.0000772871
   140      0.0000000000
Ene=      0.00000000
Spin= Alpha
Occup=  1.999420
     1      0.0000000000
     2     -0.0000000000
     3     -0.0000000000
     4     -0.0000000000
     5      0.0000000000
     6     -0.9713828306
     7      0.0000000006
     8     -0.0000000004
     9      0.0158903359
    10     -0.0000000000
    11      0.0000000000
    12     -0.0509615924
    13      0.0000000000
    14     -0.0000000000
    15      0.0056562927
    16     -0.0000000000
    17      0.0000000000
    18     -0.0000000000
    19      0.0000341493
    20     -0.0000000000
    21      0.0000000000
    22      0.0000000000
    23      0.0000000000
    24     -0.0000047930
    25      0.0000000000
    26      0.0000000000
    27      0.0000000000
    28      0.0000000000
    29     -0.0005482502
    30      0.0000000000
    31     -0.0000000000
    32     -0.0000000000
    33      0.0000087690
    34      0.0000000000
    35     -0.0000000000
    36      0.0010884554
    37     -0.0000000000
    38      0.0000000000
    39      0.0000000000
    40     -0.0000000000
    41      0.0000000000
    42     -0.0000000000
    43      0.0000818120
    44      0.0000000000
    45     -0.0000000000
    46      0.0003700674
    47      0.0000000000
    48     -0.0000000000
    49     -0.0010136233
    50     -0.0000000000
    51      0.0000000000
    52     -0.0000000000
    53     -0.0000007956
    54     -0.0000000000
    55     -0.0000000000
    56     -0.0000000000
    57     -0.0000000000
    58     -0.0000325310
    59      0.0000000000
    60      0.0000000000
    61      0.0000000000
    62     -0.0000000000
    63     -0.0000026694
    64     -0.0000000000
    65     -0.0000000000
    66      0.0000000000
    67     -0.0000001245
    68     -0.0000000000
    69     -0.0000000000
    70     -0.0000146361
    71      0.0000000000
    72     -0.0000000000
    73      0.0000000000
    74     -0.0000000000
    75      0.0000000000
    76      0.0000000000
    77     -0.0000307672
    78     -0.0000000000
    79     -0.0000000000
    80     -0.0000643589
    81      0.0000000000
    82     -0.0000000000
    83      0.0001351256
    84     -0.0000000000
    85     -0.0000000000
    86     -0.0000000000
    87      0.0000023753
    88     -0.0000000000
    89     -0.0000000000
    90     -0.0000000000
    91      0.0000000000
    92     -0.0000297921
    93      0.0000000000
    94      0.0000000000
    95      0.0000000000
    96     -0.0000000000
    97      0.0000031705
    98     -0.0000000000
    99      0.0000000000
   100      0.0000000000
   101      0.0000008304
   102     -0.0000000000
   103     -0.0000000000
   104      0.0002356633
   105      0.0000000000
   106      0.0000000000
   107      0.0000000000
   108     -0.0000000000
   109      0.0000000000
   110     -0.0000000000
   111      0.0000190733
   112     -0.0000000000
   113      0.0000000000
   114      0.0000121224
   115     -0.0000000000
   116     -0.0000000000
   117      0.0000968852
   118      0.0000000000
   119     -0.0000000000
   120      0.0000000000
   121      0.0000041381
   122     -0.0000000000
   123      0.0000000000
   124      0.0000000000
   125     -0.0000000000
   126      0.0000136356
   127      0.0000000000
   128     -0.0000000000
   129      0.0000000000
   130     -0.0000000000
   131     -0.0000001981
   132      0.0000000000
   133      0.0000000000
   134      0.0000000000
   135     -0.0000000669
   136     -0.0000000000
   137      0.0000000000
   138      0.0003906248
   139     -0.0000000000
   140      0.0000000000
Ene=      0.00000000
Spin= Alpha
Occup=  1.999419
     1      0.0000822343
     2     -0.0023735559
     3     -0.0000537706
     4     -0.0002602372
     5      0.0000798481
     6      0.0000000004
     7      0.0000000001
     8     -0.9713185077
     9     -0.0000000000
    10     -0.0000000000
    11      0.0160990835
    12      0.0000000000
    13      0.0000000000
    14     -0.0509251658
    15     -0.0000000000
    16     -0.0000000000
    17      0.0053999120
    18     -0.0000420638
    19     -0.0000000000
    20     -0.0000000000
    21      0.0000469927
    22      0.0000000000
    23      0.0000515740
    24      0.0000000000
    25      0.0000000000
    26      0.0000525410
    27     -0.0000000000
    28      0.0000047765
    29      0.0000000000
    30      0.0000000000
    31     -0.0000404841
    32     -0.0000000000
    33     -0.0000000000
    34      0.0000000000
    35     -0.0000495845
    36     -0.0000000000
    37     -0.0000000000
    38      0.0010566301
    39     -0.0003891497
    40     -0.0004932043
    41     -0.0000834821
    42     -0.0013989947
    43     -0.0000000000
    44      0.0000000000
    45     -0.0000324209
    46     -0.0000000000
    47      0.0000000000
    48     -0.0010621470
    49      0.0000000000
    50     -0.0000000000
    51      0.0003914208
    52     -0.0000080809
    53     -0.0000000000
    54     -0.0000000000
    55     -0.0002887396
    56     -0.0000000000
    57     -0.0000489993
    58      0.0000000000
    59      0.0000000000
    60      0.0000895183
    61     -0.0000000000
    62     -0.0001092794
    63      0.0000000000
    64     -0.0000000000
    65     -0.0004475814
    66     -0.0000000000
    67      0.0000000000
    68     -0.0000000000
    69     -0.0002513906
    70      0.0000000000
    71      0.0000000000
    72     -0.0000920799
    73     -0.0007170715
    74      0.0002993865
    75      0.0000125864
    76      0.0015407379
    77      0.0000000000
    78     -0.0000000000
    79      0.0000496387
    80      0.0000000000
    81      0.0000000000
    82     -0.0001845245
    83     -0.0000000000
    84     -0.0000000000
    85     -0.0012118560
    86     -0.0000201174
    87     -0.0000000000
    88     -0.0000000000
    89     -0.0000388837
    90     -0.0000000000
    91      0.0002705744
    92      0.0000000000
    93      0.0000000000
    94      0.0000856114
    95     -0.0000000000
    96     -0.0000365220
    97     -0.0000000000
    98      0.0000000000
    99      0.0001118334
   100      0.0000000000
   101     -0.0000000000
   102     -0.0000000000
   103     -0.0000596962
   104     -0.0000000000
   105      0.0000000000
   106      0.0001994834
   107     -0.0004248740
   108     -0.0000395874
   109     -0.0000201695
   110     -0.0002347144
   111      0.0000000000
   112      0.0000000000
   113      0.0000304494
   114      0.0000000000
   115     -0.0000000000
   116     -0.0002196357
   117     -0.0000000000
   118      0.0000000000
   119     -0.0001261440
   120      0.0000021791
   121     -0.0000000000
   122     -0.0000000000
   123     -0.0000007596
   124      0.0000000000
   125     -0.0000605487
   126     -0.0000000000
   127      0.0000000000
   128     -0.0002501899
   129     -0.0000000000
   130     -0.0000062652
   131      0.0000000000
   132      0.0000000000
   133      0.0000198069
   134      0.0000000000
   135     -0.0000000000
   136     -0.0000000000
   137      0.0010194517
   138     -0.0000000000
   139     -0.0000000000
   140      0.0003665081
Ene=      0.00000000
Spin= Alpha
Occup=  1.999382
     1      0.0000487384
     2      0.0001428789
     3      0.0004595075
     4     -0.0000269342
     5     -0.0007180592
     6     -0.0000000000
     7      0.0000000000
     8      0.0006840717
     9      0.0000000000
    10     -0.0000000000
    11     -0.0000423216
    12     -0.0000000000
    13      0.0000000000
    14      0.0001008546
    15      0.0000000000
    16     -0.0000000000
    17      0.0001512144
    18     -0.0000405116
    19      0.0000000000
    20      0.0000000000
    21     -0.0000001642
    22     -0.0000000000
    23      0.0000442625
    24     -0.0000000000
    25      0.0000000000
    26     -0.0000625121
    27     -0.0000000000
    28      0.0000024471
    29     -0.0000000000
    30     -0.0000000000
    31      0.0000110243
    32      0.0000000000
    33      0.0000000000
    34     -0.0000000000
    35      0.0005025285
    36      0.0000000000
    37     -0.0000000000
    38     -0.0001599256
    39     -0.0068383776
    40      0.0001630105
    41     -0.0007678512
    42     -0.0003887998
    43      0.0000000000
    44     -0.0000000000
    45      0.0000756237
    46      0.0000000000
    47     -0.0000000000
    48      0.0012942178
    49     -0.0000000000
    50     -0.0000000000
    51      0.0021709260
    52      0.0000762987
    53      0.0000000000
    54     -0.0000000000
    55      0.0000010128
    56      0.0000000000
    57     -0.0003699717
    58      0.0000000000
    59      0.0000000000
    60     -0.0000101204
    61     -0.0000000000
    62      0.0008467548
    63      0.0000000000
    64      0.0000000000
    65      0.0001143558
    66      0.0000000000
    67      0.0000000000
    68     -0.0000000000
    69     -0.0019521118
    70      0.0000000000
    71     -0.0000000000
    72     -0.0007235369
    73     -0.9758931466
    74      0.0103759139