Generated by Psi4
     FORCE                          CCSD                   MAY-CC-PVTZ
Number of atoms                            I                4
Charge                                     I                0
Multiplicity                               I                2
Number of electrons                        I               39
Number of alpha electrons                  I               20
Number of beta electrons                   I               19
Number of basis functions                  I              140
Number of independent functions            I              140
Atomic numbers                             I   N=           4
          18           6           7           8
Nuclear charges                            R   N=           4
  1.80000000e+01  6.00000000e+00  7.00000000e+00  8.00000000e+00
Current cartesian coordinates              R   N=          12
  0.00000000e+00  0.00000000e+00  9.29197615e+00  0.00000000e+00  0.00000000e+00
  0.00000000e+00  0.00000000e+00  0.00000000e+00  2.32812559e+00  0.00000000e+00
  0.00000000e+00 -2.22128803e+00
Integer atomic weights                     I   N=           4
          39          12          14          15
Real atomic weights                        R   N=           4
  3.99623831e+01  1.20000000e+01  1.40030740e+01  1.59949146e+01
Number of primitive shells                 I              146
Number of contracted shells                I               50
Pure/Cartesian d shells                    I                0
Pure/Cartesian f shells                    I                0
Highest angular momentum                   I                3
Largest degree of contraction              I               13
Shell types                                I   N=          50
           0           0           0           0           0           1
           1           1           1          -2          -2          -3
           0           1           0           0           0           0
           1           1           1          -2          -2          -3
           0           1           0           0           0           0
           1           1           1          -2          -2          -3
           0           1           0           0           0           0
           1           1           1          -2          -2          -3
           0           1
Number of primitives per shell             I   N=          50
          13          13          13           1           1           7
           7           1           1           1           1           1
           1           1           8           8           1           1
           3           1           1           1           1           1
           1           1           8           8           1           1
           3           1           1           1           1           1
           1           1           8           8           1           1
           3           1           1           1           1           1
           1           1
Shell to atom map                          I   N=          50
           1           1           1           1           1           1
           1           1           1           1           1           1
           1           1           2           2           2           2
           2           2           2           2           2           2
           2           2           3           3           3           3
           3           3           3           3           3           3
           3           3           4           4           4           4
           4           4           4           4           4           4
           4           4
Primitive exponents                        R   N=         146
  5.45000000e+05  8.16400000e+04  1.85800000e+04  5.26100000e+03  1.71700000e+03
  6.19900000e+02  2.41600000e+02  9.97900000e+01  4.31500000e+01  1.91400000e+01
  7.48800000e+00  3.20500000e+00  5.20400000e-01  5.45000000e+05  8.16400000e+04
  1.85800000e+04  5.26100000e+03  1.71700000e+03  6.19900000e+02  2.41600000e+02
  9.97900000e+01  4.31500000e+01  1.91400000e+01  7.48800000e+00  3.20500000e+00
  5.20400000e-01  5.45000000e+05  8.16400000e+04  1.85800000e+04  5.26100000e+03
  1.71700000e+03  6.19900000e+02  2.41600000e+02  9.97900000e+01  4.31500000e+01
  1.91400000e+01  7.48800000e+00  3.20500000e+00  5.20400000e-01  1.19600000e+00
  1.95400000e-01  7.61800000e+02  1.80200000e+02  5.75000000e+01  2.12400000e+01
  8.38800000e+00  3.41600000e+00  4.52300000e-01  7.61800000e+02  1.80200000e+02
  5.75000000e+01  2.12400000e+01  8.38800000e+00  3.41600000e+00  4.52300000e-01
  1.20600000e+00  1.54500000e-01  4.10000000e-01  1.25400000e+00  8.90000000e-01
  6.85000000e-02  4.87000000e-02  8.23600000e+03  1.23500000e+03  2.80800000e+02
  7.92700000e+01  2.55900000e+01  8.99700000e+00  3.31900000e+00  3.64300000e-01
  8.23600000e+03  1.23500000e+03  2.80800000e+02  7.92700000e+01  2.55900000e+01
  8.99700000e+00  3.31900000e+00  3.64300000e-01  9.05900000e-01  1.28500000e-01
  1.87100000e+01  4.13300000e+00  1.20000000e+00  3.82700000e-01  1.20900000e-01
  1.09700000e+00  3.18000000e-01  7.61000000e-01  4.40200000e-02  3.56900000e-02
  1.14200000e+04  1.71200000e+03  3.89300000e+02  1.10000000e+02  3.55700000e+01
  1.25400000e+01  4.64400000e+00  5.11800000e-01  1.14200000e+04  1.71200000e+03
  3.89300000e+02  1.10000000e+02  3.55700000e+01  1.25400000e+01  4.64400000e+00
  5.11800000e-01  1.29300000e+00  1.78700000e-01  2.66300000e+01  5.94800000e+00
  1.74200000e+00  5.55000000e-01  1.72500000e-01  1.65400000e+00  4.69000000e-01
  1.09300000e+00  5.76000000e-02  4.91000000e-02  1.53300000e+04  2.29900000e+03
  5.22400000e+02  1.47300000e+02  4.75500000e+01  1.67600000e+01  6.20700000e+00
  6.88200000e-01  1.53300000e+04  2.29900000e+03  5.22400000e+02  1.47300000e+02
  4.75500000e+01  1.67600000e+01  6.20700000e+00  6.88200000e-01  1.75200000e+00
  2.38400000e-01  3.44600000e+01  7.74900000e+00  2.28000000e+00  7.15600000e-01
  2.14000000e-01  2.31400000e+00  6.45000000e-01  1.42800000e+00  7.37600000e-02
  5.97400000e-02
Contraction coefficients                   R   N=         146
  4.55816851e-05  3.54099339e-04  1.85792456e-03  7.76831999e-03  2.74225293e-02
  8.23815850e-02  2.01225078e-01  3.56772274e-01  3.49554450e-01  1.18263107e-01
  5.60176299e-03  4.83461175e-04  2.92017857e-05 -1.38905279e-05 -1.07679442e-04
 -5.67821742e-04 -2.37381982e-03 -8.54381497e-03 -2.63551299e-02 -7.05294555e-02
 -1.47902155e-01 -2.16188771e-01 -4.42642836e-02  5.19676504e-01  6.21047089e-01
 -7.80086241e-03  6.24207639e-06  4.83489267e-05  2.55308769e-04  1.06605275e-03
  3.84999200e-03  1.18844979e-02  3.21689111e-02  6.84279475e-02  1.04842346e-01
  2.17861552e-02 -3.19801029e-01 -6.55118240e-01  1.13073305e+00  1.00000000e+00
  1.00000000e+00  2.43607294e-03  1.95521334e-02  9.05454602e-02  2.63551192e-01
  4.50987440e-01  3.57295015e-01 -5.38541778e-03 -1.14159413e-03 -9.11475682e-03
 -4.37148745e-02 -1.29555965e-01 -2.41477740e-01 -1.59596061e-01  9.62348672e-01
  1.00000000e+00  1.00000000e+00  1.00000000e+00  1.00000000e+00  1.00000000e+00
  1.00000000e+00  1.00000000e+00  5.42430189e-04  4.19642790e-03  2.15409141e-02
  8.36149496e-02  2.39871619e-01  4.43751820e-01  3.53579696e-01 -9.17636608e-03
 -1.96392234e-04 -1.52595027e-03 -7.89044903e-03 -3.15148705e-02 -9.69100083e-02
 -2.20541526e-01 -2.96069113e-01  1.04050343e+00  1.00000000e+00  1.00000000e+00
  3.94263872e-02  2.44088985e-01  8.15492009e-01  1.00000000e+00  1.00000000e+00
  1.00000000e+00  1.00000000e+00  1.00000000e+00  1.00000000e+00  1.00000000e+00
  5.34980914e-04  4.13766310e-03  2.12509149e-02  8.25762988e-02  2.38413273e-01
  4.43431666e-01  3.55431909e-01 -8.70290176e-03 -1.98776985e-04 -1.54700349e-03
 -7.99256330e-03 -3.20255651e-02 -9.91102048e-02 -2.28292775e-01 -2.98182763e-01
  1.03700052e+00  1.00000000e+00  1.00000000e+00  3.98072123e-02  2.49002660e-01
  8.10479727e-01  1.00000000e+00  1.00000000e+00  1.00000000e+00  1.00000000e+00
  1.00000000e+00  1.00000000e+00  1.00000000e+00  5.20198307e-04  4.02334478e-03
  2.07290833e-02  8.10823271e-02  2.36226352e-01  4.43518209e-01  3.58670589e-01
 -8.34979724e-03 -1.97236012e-04 -1.53501070e-03 -7.95118391e-03 -3.21134529e-02
 -1.00269643e-01 -2.34047112e-01 -3.01410928e-01  1.03491965e+00  1.00000000e+00
  1.00000000e+00  4.11634896e-02  2.57762836e-01  8.02419274e-01  1.00000000e+00
  1.00000000e+00  1.00000000e+00  1.00000000e+00  1.00000000e+00  1.00000000e+00
  1.00000000e+00
Coordinates of each shell                  R   N=         150
  0.00000000e+00  0.00000000e+00  9.29197615e+00  0.00000000e+00  0.00000000e+00
  9.29197615e+00  0.00000000e+00  0.00000000e+00  9.29197615e+00  0.00000000e+00
  0.00000000e+00  9.29197615e+00  0.00000000e+00  0.00000000e+00  9.29197615e+00
  0.00000000e+00  0.00000000e+00  9.29197615e+00  0.00000000e+00  0.00000000e+00
  9.29197615e+00  0.00000000e+00  0.00000000e+00  9.29197615e+00  0.00000000e+00
  0.00000000e+00  9.29197615e+00  0.00000000e+00  0.00000000e+00  9.29197615e+00
  0.00000000e+00  0.00000000e+00  9.29197615e+00  0.00000000e+00  0.00000000e+00
  9.29197615e+00  0.00000000e+00  0.00000000e+00  9.29197615e+00  0.00000000e+00
  0.00000000e+00  9.29197615e+00  0.00000000e+00  0.00000000e+00  0.00000000e+00
  0.00000000e+00  0.00000000e+00  0.00000000e+00  0.00000000e+00  0.00000000e+00
  0.00000000e+00  0.00000000e+00  0.00000000e+00  0.00000000e+00  0.00000000e+00
  0.00000000e+00  0.00000000e+00  0.00000000e+00  0.00000000e+00  0.00000000e+00
  0.00000000e+00  0.00000000e+00  0.00000000e+00  0.00000000e+00  0.00000000e+00
  0.00000000e+00  0.00000000e+00  0.00000000e+00  0.00000000e+00  0.00000000e+00
  0.00000000e+00  0.00000000e+00  0.00000000e+00  0.00000000e+00  0.00000000e+00
  0.00000000e+00  0.00000000e+00  0.00000000e+00  0.00000000e+00  0.00000000e+00
  2.32812559e+00  0.00000000e+00  0.00000000e+00  2.32812559e+00  0.00000000e+00
  0.00000000e+00  2.32812559e+00  0.00000000e+00  0.00000000e+00  2.32812559e+00
  0.00000000e+00  0.00000000e+00  2.32812559e+00  0.00000000e+00  0.00000000e+00
  2.32812559e+00  0.00000000e+00  0.00000000e+00  2.32812559e+00  0.00000000e+00
  0.00000000e+00  2.32812559e+00  0.00000000e+00  0.00000000e+00  2.32812559e+00
  0.00000000e+00  0.00000000e+00  2.32812559e+00  0.00000000e+00  0.00000000e+00
  2.32812559e+00  0.00000000e+00  0.00000000e+00  2.32812559e+00  0.00000000e+00
  0.00000000e+00 -2.22128803e+00  0.00000000e+00  0.00000000e+00 -2.22128803e+00
  0.00000000e+00  0.00000000e+00 -2.22128803e+00  0.00000000e+00  0.00000000e+00
 -2.22128803e+00  0.00000000e+00  0.00000000e+00 -2.22128803e+00  0.00000000e+00
  0.00000000e+00 -2.22128803e+00  0.00000000e+00  0.00000000e+00 -2.22128803e+00
  0.00000000e+00  0.00000000e+00 -2.22128803e+00  0.00000000e+00  0.00000000e+00
 -2.22128803e+00  0.00000000e+00  0.00000000e+00 -2.22128803e+00  0.00000000e+00
  0.00000000e+00 -2.22128803e+00  0.00000000e+00  0.00000000e+00 -2.22128803e+00
Total Energy                               R     -6.948353469327579e+02
alpha orbital energies                     R   N=         140
 -1.18602574e+02 -2.06978768e+01 -1.56528546e+01 -1.23136791e+01 -1.14132141e+01
 -9.56266030e+00 -9.56265821e+00 -9.56263110e+00 -1.53690463e+00 -1.29227039e+00
 -1.26853006e+00 -8.07121337e-01 -7.28664885e-01 -6.96563511e-01 -6.47856367e-01
 -5.82343070e-01 -5.82262676e-01 -5.80902892e-01 -5.54717454e-01 -4.95338332e-01
  5.16150848e-02  7.16443702e-02  7.46436871e-02  7.78742437e-02  1.20366909e-01
  1.34237490e-01  1.35821081e-01  1.80034353e-01  1.85949740e-01  1.90416852e-01
  1.93685177e-01  2.07444832e-01  2.35733203e-01  2.41637390e-01  2.46392285e-01
  2.49972846e-01  2.81159010e-01  3.25338437e-01  4.50653530e-01  5.68165694e-01
  5.72499085e-01  6.47035198e-01  6.93317693e-01  7.21168289e-01  7.22059436e-01
  7.36406394e-01  7.36406542e-01  7.37259554e-01  7.39098591e-01  7.42437418e-01
  7.50227585e-01  7.50750174e-01  7.62757597e-01  7.70977404e-01  7.91063863e-01
  8.61659150e-01  9.64348448e-01  9.80141474e-01  9.83136340e-01  1.14220867e+00
  1.16702026e+00  1.17188675e+00  1.19475724e+00  1.27394782e+00  1.30044586e+00
  1.30193849e+00  1.76156338e+00  1.78521196e+00  1.78572413e+00  1.82255136e+00
  1.84637596e+00  2.13191305e+00  2.31359729e+00  2.37208125e+00  2.38613174e+00
  2.43581664e+00  2.44550258e+00  2.55481353e+00  2.55481353e+00  2.56360131e+00
  2.56372637e+00  2.60510075e+00  2.62845567e+00  2.80544995e+00  2.85228035e+00
  2.85228169e+00  2.93190188e+00  2.93190189e+00  2.93229797e+00  2.93229810e+00
  2.93290904e+00  2.93295723e+00  2.93691503e+00  3.05014356e+00  3.05023943e+00
  3.08232804e+00  3.08259622e+00  3.10102780e+00  3.13722488e+00  3.15460302e+00
  3.18042746e+00  3.18048987e+00  3.51403585e+00  3.55399511e+00  3.73319954e+00
  3.79875648e+00  3.82215277e+00  3.84448415e+00  4.23867748e+00  4.23870515e+00
  4.39407951e+00  4.42617969e+00  4.64786399e+00  4.64817222e+00  4.88354657e+00
  4.89091889e+00  4.92423750e+00  5.17339500e+00  5.35410370e+00  5.38737339e+00
  5.48829324e+00  5.48832778e+00  5.57202243e+00  5.85072234e+00  5.87822308e+00
  5.97627285e+00  5.97654366e+00  6.06432788e+00  6.21072039e+00  6.70858913e+00
  6.70860308e+00  6.96747178e+00  7.21962300e+00  7.24736548e+00  7.48897189e+00
  7.51051041e+00  7.51845539e+00  7.94856154e+00  1.41176463e+01  1.49104453e+01
alpha MO coefficients (C)                  R   N=       19600
  1.00002542e+00  7.43058126e-06  9.90559252e-06 -1.51383307e-04 -3.90785902e-05
  0.00000000e+00  0.00000000e+00  1.35231024e-06  0.00000000e+00  0.00000000e+00
  4.47082229e-07  0.00000000e+00  0.00000000e+00 -6.82786697e-07  0.00000000e+00
  0.00000000e+00 -3.55422751e-09  3.23986647e-07  0.00000000e+00  0.00000000e+00
  7.29755573e-10  0.00000000e+00 -2.03210063e-07  0.00000000e+00  0.00000000e+00
 -3.00442886e-09  0.00000000e+00 -1.44254001e-08  0.00000000e+00  0.00000000e+00
 -8.11300815e-10  0.00000000e+00  0.00000000e+00  0.00000000e+00  1.35228858e-05
  0.00000000e+00  0.00000000e+00 -3.31722572e-06  6.26542605e-07  1.18628571e-06
  1.20343831e-07 -7.42967951e-06  0.00000000e+00  0.00000000e+00 -9.76582201e-08
  0.00000000e+00  0.00000000e+00  1.52515744e-06  0.00000000e+00  0.00000000e+00
 -5.62480836e-06  1.69731095e-07  0.00000000e+00  0.00000000e+00 -1.07667033e-12
  0.00000000e+00 -1.17212266e-06  0.00000000e+00  0.00000000e+00  5.36348236e-11
  0.00000000e+00  2.25099588e-07  0.00000000e+00  0.00000000e+00  2.83310270e-11
  0.00000000e+00  0.00000000e+00  0.00000000e+00 -1.28817642e-05  0.00000000e+00
  0.00000000e+00 -1.24020464e-06 -1.38243443e-08 -1.07203014e-08  8.45318870e-08
  3.36741960e-06  0.00000000e+00  0.00000000e+00  1.24167427e-08  0.00000000e+00
  0.00000000e+00  2.58427391e-07  0.00000000e+00  0.00000000e+00 -1.26048113e-06
  2.98851924e-09  0.00000000e+00  0.00000000e+00 -1.46394603e-10  0.00000000e+00
 -4.81814415e-07  0.00000000e+00  0.00000000e+00 -2.91953979e-10  0.00000000e+00
  1.47892091e-07  0.00000000e+00  0.00000000e+00 -1.02599110e-10  0.00000000e+00
  0.00000000e+00  0.00000000e+00  1.63686073e-05  0.00000000e+00  0.00000000e+00
 -1.16654408e-05  4.63860664e-07  8.20427781e-07 -8.26267625e-08  5.49795625e-07
  0.00000000e+00  0.00000000e+00 -6.72874496e-08  0.00000000e+00  0.00000000e+00
  6.69630343e-07  0.00000000e+00  0.00000000e+00  2.65709793e-08  2.65805934e-08
  0.00000000e+00  0.00000000e+00 -3.35471568e-12  0.00000000e+00  4.73956699e-08
  0.00000000e+00  0.00000000e+00 -1.07589059e-11  0.00000000e+00 -4.95201781e-08
  0.00000000e+00  0.00000000e+00 -5.78948194e-12  0.00000000e+00  0.00000000e+00
  0.00000000e+00 -5.21089934e-06  0.00000000e+00  0.00000000e+00 -2.22226368e-06
 -7.98999973e-06 -4.44214740e-05 -5.08939351e-05  1.71068881e-05  1.19167650e-04
  0.00000000e+00  0.00000000e+00 -1.01959958e-05  0.00000000e+00  0.00000000e+00
 -1.84739038e-05  0.00000000e+00  0.00000000e+00  6.30558100e-06  0.00000000e+00
  0.00000000e+00  4.15591733e-05 -3.04205929e-06  0.00000000e+00  0.00000000e+00
 -2.64586084e-10  0.00000000e+00  1.27792706e-06  0.00000000e+00  0.00000000e+00
  3.01215367e-10  0.00000000e+00 -5.78502462e-07  0.00000000e+00  0.00000000e+00
  1.14463437e-10  0.00000000e+00  0.00000000e+00  0.00000000e+00 -2.70366745e-04
  0.00000000e+00  0.00000000e+00  8.00383767e-05  9.14092688e-04  1.92303452e-03
 -9.13678547e-05  2.89964604e-03  0.00000000e+00  0.00000000e+00 -3.96731027e-04
  0.00000000e+00  0.00000000e+00 -1.41840472e-03  0.00000000e+00  0.00000000e+00
  2.96416148e-03  4.68446862e-04  0.00000000e+00  0.00000000e+00  1.39443603e-06
  0.00000000e+00  1.51739792e-03  0.00000000e+00  0.00000000e+00 -1.42252235e-05
  0.00000000e+00  4.59402009e-05  0.00000000e+00  0.00000000e+00  8.44126624e-06
  0.00000000e+00  0.00000000e+00  0.00000000e+00  1.87058247e-03  0.00000000e+00
  0.00000000e+00 -1.20916239e-04 -2.58541275e-04 -4.89823836e-04  4.93832705e-06
 -2.89070422e-03  0.00000000e+00  0.00000000e+00 -8.34299853e-06  0.00000000e+00
  0.00000000e+00  4.33950986e-04  0.00000000e+00  0.00000000e+00  8.93794473e-04
 -7.78566119e-05  0.00000000e+00  0.00000000e+00 -1.03806716e-06  0.00000000e+00
 -5.84942012e-05  0.00000000e+00  0.00000000e+00  2.03302489e-06  0.00000000e+00
  7.89398555e-05  0.00000000e+00  0.00000000e+00  7.80103979e-07  0.00000000e+00
  0.00000000e+00  0.00000000e+00 -2.86669306e-03  0.00000000e+00  0.00000000e+00
  1.24363163e-03  9.74807760e-01 -2.00236697e-03  4.42025540e-02  2.77839414e-03
  0.00000000e+00  0.00000000e+00  2.15860371e-03  0.00000000e+00  0.00000000e+00
 -2.12908227e-03  0.00000000e+00  0.00000000e+00 -4.05275305e-05  1.23654957e-05
  0.00000000e+00  0.00000000e+00 -2.63466636e-04  0.00000000e+00 -6.35391782e-04
  0.00000000e+00  0.00000000e+00  7.17911246e-05  0.00000000e+00 -9.91742464e-05
  0.00000000e+00  0.00000000e+00  6.07359545e-06  0.00000000e+00  0.00000000e+00
  0.00000000e+00  2.16707426e-04  0.00000000e+00  0.00000000e+00  3.40786583e-04
 -3.09380880e-06 -1.70151506e-05 -1.93728133e-05  8.21293023e-06  1.15341813e-05
  0.00000000e+00  0.00000000e+00  1.69789972e-05  0.00000000e+00  0.00000000e+00
  3.13685042e-05  0.00000000e+00  0.00000000e+00 -1.03845392e-05  0.00000000e+00
  0.00000000e+00 -5.24392142e-05  1.68109723e-05  0.00000000e+00  0.00000000e+00
  1.18695655e-09  0.00000000e+00 -6.96089929e-06  0.00000000e+00  0.00000000e+00
 -1.03045894e-09  0.00000000e+00 -1.67308386e-06  0.00000000e+00  0.00000000e+00
 -1.15353683e-09  0.00000000e+00  0.00000000e+00  0.00000000e+00  2.22442883e-05
  0.00000000e+00  0.00000000e+00 -2.29001254e-06  9.70318761e-04  1.88654929e-03
  1.08687185e-04  1.41260664e-03  0.00000000e+00  0.00000000e+00  5.26910312e-04
  0.00000000e+00  0.00000000e+00 -7.71622136e-04  0.00000000e+00  0.00000000e+00
 -3.00931462e-03  2.80292230e-04  0.00000000e+00  0.00000000e+00  4.32594483e-06
  0.00000000e+00  1.21081098e-03  0.00000000e+00  0.00000000e+00 -2.00841024e-05
  0.00000000e+00 -7.69547683e-04  0.00000000e+00  0.00000000e+00 -2.33389099e-06
  0.00000000e+00  0.00000000e+00  0.00000000e+00  1.53003871e-03  0.00000000e+00
  0.00000000e+00  2.78450136e-04  9.75743345e-01 -1.63223576e-03  4.32899633e-02
  5.57780492e-03  0.00000000e+00  0.00000000e+00 -2.75365767e-03  0.00000000e+00
  0.00000000e+00  1.59825476e-03  0.00000000e+00  0.00000000e+00 -9.62116866e-04
  9.01109268e-05  0.00000000e+00  0.00000000e+00 -4.15022936e-04  0.00000000e+00
 -3.62287051e-04  0.00000000e+00  0.00000000e+00  9.63296450e-05  0.00000000e+00
  2.62989055e-05  0.00000000e+00  0.00000000e+00  5.94390199e-06  0.00000000e+00
  0.00000000e+00  0.00000000e+00 -1.12399187e-03  0.00000000e+00  0.00000000e+00
  1.48689497e-05 -4.27911762e-04 -8.11593379e-04  4.47271426e-05 -2.89323034e-03
  0.00000000e+00  0.00000000e+00  2.72205248e-05  0.00000000e+00  0.00000000e+00
 -9.96641355e-04  0.00000000e+00  0.00000000e+00 -9.12701753e-04 -8.57790816e-05
  0.00000000e+00  0.00000000e+00 -1.39828705e-06  0.00000000e+00 -3.13752912e-04
  0.00000000e+00  0.00000000e+00  4.42504998e-06  0.00000000e+00 -1.08389360e-04
  0.00000000e+00  0.00000000e+00  8.50602292e-07  0.00000000e+00  0.00000000e+00
  0.00000000e+00 -2.38286436e-03  0.00000000e+00  0.00000000e+00 -6.19396772e-04
 -1.26696898e-04  9.31955028e-01 -8.12515933e-04  8.82031234e-02  3.64527565e-03
  0.00000000e+00  0.00000000e+00  8.16778744e-05  0.00000000e+00  0.00000000e+00
  4.27809403e-06  0.00000000e+00  0.00000000e+00  1.59641147e-05  0.00000000e+00
  0.00000000e+00 -2.11124979e-05 -1.98941553e-05  0.00000000e+00  0.00000000e+00
  7.65948703e-08  0.00000000e+00  4.69005764e-06  0.00000000e+00  0.00000000e+00
 -2.66227531e-07  0.00000000e+00  6.92162488e-07  0.00000000e+00  0.00000000e+00
  5.29656697e-08  0.00000000e+00  0.00000000e+00  0.00000000e+00 -1.10924440e-03
  0.00000000e+00  0.00000000e+00  2.59952323e-04 -4.32371013e-05 -8.32776864e-05
 -1.03287354e-05  4.64395311e-04  0.00000000e+00  0.00000000e+00  7.19611542e-06
  0.00000000e+00  0.00000000e+00 -1.27254243e-04  0.00000000e+00  0.00000000e+00
  3.37705057e-04 -9.76420070e-06  0.00000000e+00  0.00000000e+00  2.55237726e-09
  0.00000000e+00  7.41931754e-05  0.00000000e+00  0.00000000e+00 -9.66173837e-09
  0.00000000e+00 -1.50038250e-05  0.00000000e+00  0.00000000e+00 -3.89005209e-09
  0.00000000e+00  0.00000000e+00  0.00000000e+00  9.51647447e-04  0.00000000e+00
  0.00000000e+00  1.01764156e-04 -2.84249278e-06 -6.55859107e-06 -6.09931018e-06
 -1.45138560e-04  0.00000000e+00  0.00000000e+00 -1.02317773e-06  0.00000000e+00
  0.00000000e+00 -1.89600589e-05  0.00000000e+00  0.00000000e+00  4.63300334e-05
 -1.12513575e-06  0.00000000e+00  0.00000000e+00  1.09808330e-08  0.00000000e+00
  4.04475692e-05  0.00000000e+00  0.00000000e+00  1.98236864e-08  0.00000000e+00
 -1.00600087e-05  0.00000000e+00  0.00000000e+00  3.13555611e-09  0.00000000e+00
  0.00000000e+00  0.00000000e+00 -1.16551667e-03  0.00000000e+00  0.00000000e+00
  8.53244428e-04 -2.37212704e-05 -4.34112506e-05  1.63872460e-06 -7.33038224e-05
  0.00000000e+00  0.00000000e+00  4.91120406e-06  0.00000000e+00  0.00000000e+00
 -4.92548283e-05  0.00000000e+00  0.00000000e+00 -1.00907981e-05 -1.22735654e-06
  0.00000000e+00  0.00000000e+00  1.45004812e-09  0.00000000e+00 -7.25178331e-06
  0.00000000e+00  0.00000000e+00  7.07839944e-10  0.00000000e+00  2.42247409e-06
  0.00000000e+00  0.00000000e+00  1.68149047e-09  0.00000000e+00  0.00000000e+00
  0.00000000e+00  3.61078334e-04  0.00000000e+00  0.00000000e+00  1.54713214e-04
 -8.17188668e-06 -4.58679873e-05 -5.30840917e-05  1.60721740e-05  1.25675250e-04
  0.00000000e+00  0.00000000e+00 -7.29765279e-06  0.00000000e+00  0.00000000e+00
 -1.36720273e-05  0.00000000e+00  0.00000000e+00  4.27272658e-06  0.00000000e+00
  0.00000000e+00  2.14140421e-05 -5.18957315e-06  0.00000000e+00  0.00000000e+00
  9.82082702e-10  0.00000000e+00  2.66715462e-06  0.00000000e+00  0.00000000e+00
 -1.19855434e-09  0.00000000e+00  1.81736747e-07  0.00000000e+00  0.00000000e+00
 -4.25279277e-10  0.00000000e+00  0.00000000e+00  0.00000000e+00 -2.27638283e-04
  0.00000000e+00  0.00000000e+00  7.65496240e-05  9.78188994e-01  6.14116965e-04
  4.14211007e-02  4.06964000e-03  0.00000000e+00  0.00000000e+00 -7.71570652e-04
  0.00000000e+00  0.00000000e+00  1.29486475e-03  0.00000000e+00  0.00000000e+00
  9.16563967e-04  1.82887145e-03  0.00000000e+00  0.00000000e+00  5.98558439e-05
  0.00000000e+00 -8.21776807e-04  0.00000000e+00  0.00000000e+00  5.20583795e-06
  0.00000000e+00  1.39882029e-05  0.00000000e+00  0.00000000e+00 -2.12621404e-05
  0.00000000e+00  0.00000000e+00  0.00000000e+00  1.74525361e-03  0.00000000e+00
  0.00000000e+00  2.90365336e-04 -3.54757957e-04  4.38943030e-04  3.60889396e-04
 -1.46225495e-03  0.00000000e+00  0.00000000e+00 -3.65499749e-04  0.00000000e+00
  0.00000000e+00  2.48235291e-04  0.00000000e+00  0.00000000e+00  8.79187545e-04
 -6.83004502e-05  0.00000000e+00  0.00000000e+00 -3.51113402e-06  0.00000000e+00
 -6.62262509e-04  0.00000000e+00  0.00000000e+00  4.33999403e-06  0.00000000e+00
  1.89650426e-04  0.00000000e+00  0.00000000e+00  2.18767218e-06  0.00000000e+00
  0.00000000e+00  0.00000000e+00 -2.39728621e-03  0.00000000e+00  0.00000000e+00
  7.61304038e-04 -1.98590893e-04  5.78939198e-04  3.50871695e-04  1.04920668e-03
  0.00000000e+00  0.00000000e+00  4.59097324e-04  0.00000000e+00  0.00000000e+00
  1.71674534e-04  0.00000000e+00  0.00000000e+00  2.31314635e-04  6.55145896e-05
  0.00000000e+00  0.00000000e+00 -1.51860793e-06  0.00000000e+00 -5.18403269e-04
  0.00000000e+00  0.00000000e+00 -7.87248450e-06  0.00000000e+00 -1.06665972e-04
  0.00000000e+00  0.00000000e+00 -7.01135609e-06  0.00000000e+00  0.00000000e+00
  0.00000000e+00 -8.64937179e-04  0.00000000e+00  0.00000000e+00 -3.91098114e-04
  0.00000000e+00  0.00000000e+00  0.00000000e+00  0.00000000e+00  0.00000000e+00
  0.00000000e+00  9.72514579e-01  0.00000000e+00  0.00000000e+00 -4.76706193e-04
  0.00000000e+00  0.00000000e+00  5.68514237e-02  0.00000000e+00  0.00000000e+00
  2.38406015e-03  0.00000000e+00  0.00000000e+00  0.00000000e+00  1.54470764e-06
  0.00000000e+00  0.00000000e+00  0.00000000e+00  0.00000000e+00  7.67155483e-06
  0.00000000e+00  0.00000000e+00  0.00000000e+00  0.00000000e+00 -2.20355804e-06
  0.00000000e+00  0.00000000e+00  0.00000000e+00 -1.32952979e-07  0.00000000e+00
  0.00000000e+00 -7.26588834e-04  0.00000000e+00  0.00000000e+00  0.00000000e+00
  0.00000000e+00  0.00000000e+00  0.00000000e+00 -2.44466738e-06  0.00000000e+00
  0.00000000e+00  9.30075182e-06  0.00000000e+00  0.00000000e+00 -4.08606668e-05
  0.00000000e+00  0.00000000e+00  0.00000000e+00 -9.26120620e-07  0.00000000e+00
  0.00000000e+00  0.00000000e+00  0.00000000e+00  2.67338911e-05  0.00000000e+00
  0.00000000e+00  0.00000000e+00  0.00000000e+00 -2.06010521e-06  0.00000000e+00
  0.00000000e+00  0.00000000e+00 -8.12436922e-10  0.00000000e+00  0.00000000e+00
  4.62494973e-05  0.00000000e+00  0.00000000e+00  0.00000000e+00  0.00000000e+00
  0.00000000e+00  0.00000000e+00 -2.07160753e-06  0.00000000e+00  0.00000000e+00
  5.06055445e-06  0.00000000e+00  0.00000000e+00 -2.44855026e-05  0.00000000e+00
  0.00000000e+00  0.00000000e+00 -1.73323138e-06  0.00000000e+00  0.00000000e+00
  0.00000000e+00  0.00000000e+00  1.12099726e-05  0.00000000e+00  0.00000000e+00
  0.00000000e+00  0.00000000e+00 -1.59648948e-06  0.00000000e+00  0.00000000e+00
  0.00000000e+00 -8.26442471e-10  0.00000000e+00  0.00000000e+00  9.91953335e-05
  0.00000000e+00  0.00000000e+00  0.00000000e+00  0.00000000e+00  0.00000000e+00
  0.00000000e+00  1.71547256e-06  0.00000000e+00  0.00000000e+00 -6.51355626e-06
  0.00000000e+00  0.00000000e+00  4.87058745e-05  0.00000000e+00  0.00000000e+00
  0.00000000e+00 -1.88935068e-06  0.00000000e+00  0.00000000e+00  0.00000000e+00
  0.00000000e+00  1.00959508e-05  0.00000000e+00  0.00000000e+00  0.00000000e+00
  0.00000000e+00  1.02800801e-06  0.00000000e+00  0.00000000e+00  0.00000000e+00
  1.03425027e-09  0.00000000e+00  0.00000000e+00 -6.98846965e-05  0.00000000e+00
  0.00000000e+00  0.00000000e+00  0.00000000e+00  0.00000000e+00  0.00000000e+00
  9.72515409e-01  0.00000000e+00  0.00000000e+00 -4.76269899e-04  0.00000000e+00
  0.00000000e+00  5.68500490e-02  0.00000000e+00  0.00000000e+00  2.38379539e-03
  0.00000000e+00  0.00000000e+00  0.00000000e+00  1.61367953e-06  0.00000000e+00
  0.00000000e+00  0.00000000e+00  0.00000000e+00  7.67771157e-06  0.00000000e+00
  0.00000000e+00  0.00000000e+00  0.00000000e+00 -2.14913135e-06  0.00000000e+00
  0.00000000e+00  0.00000000e+00 -1.32951731e-07  0.00000000e+00  0.00000000e+00
 -7.26500518e-04  0.00000000e+00  0.00000000e+00  0.00000000e+00  0.00000000e+00
  0.00000000e+00  0.00000000e+00 -2.44166399e-06  0.00000000e+00  0.00000000e+00
  9.29656419e-06  0.00000000e+00  0.00000000e+00 -4.08755515e-05  0.00000000e+00
  0.00000000e+00  0.00000000e+00 -9.24782076e-07  0.00000000e+00  0.00000000e+00
  0.00000000e+00  0.00000000e+00  2.67115544e-05  0.00000000e+00  0.00000000e+00
  0.00000000e+00  0.00000000e+00 -2.06094765e-06  0.00000000e+00  0.00000000e+00
  0.00000000e+00 -8.25615266e-10  0.00000000e+00  0.00000000e+00  4.62286896e-05
  0.00000000e+00  0.00000000e+00  0.00000000e+00  0.00000000e+00  0.00000000e+00
  0.00000000e+00 -2.06545342e-06  0.00000000e+00  0.00000000e+00  5.05547978e-06
  0.00000000e+00  0.00000000e+00 -2.44323247e-05  0.00000000e+00  0.00000000e+00
  0.00000000e+00 -1.73192930e-06  0.00000000e+00  0.00000000e+00  0.00000000e+00
  0.00000000e+00  1.12013019e-05  0.00000000e+00  0.00000000e+00  0.00000000e+00
  0.00000000e+00 -1.59319527e-06  0.00000000e+00  0.00000000e+00  0.00000000e+00
 -9.17542402e-10  0.00000000e+00  0.00000000e+00  9.91904835e-05  0.00000000e+00
  0.00000000e+00  0.00000000e+00  0.00000000e+00  0.00000000e+00  0.00000000e+00
  1.71452921e-06  0.00000000e+00  0.00000000e+00 -6.51301550e-06  0.00000000e+00
  0.00000000e+00  4.86890591e-05  0.00000000e+00  0.00000000e+00  0.00000000e+00
 -1.88858857e-06  0.00000000e+00  0.00000000e+00  0.00000000e+00  0.00000000e+00
  1.00901253e-05  0.00000000e+00  0.00000000e+00  0.00000000e+00  0.00000000e+00
  1.02739786e-06  0.00000000e+00  0.00000000e+00  0.00000000e+00  1.04278612e-09
  0.00000000e+00  0.00000000e+00 -6.98615715e-05  0.00000000e+00  0.00000000e+00
 -8.48418520e-06 -1.22577467e-04 -3.04267459e-05  1.47723316e-05  1.39025901e-04
  0.00000000e+00  0.00000000e+00  9.72452131e-01  0.00000000e+00  0.00000000e+00
 -6.04493907e-04  0.00000000e+00  0.00000000e+00  5.68818268e-02  0.00000000e+00
  0.00000000e+00  2.57026943e-03 -3.17085324e-05  0.00000000e+00  0.00000000e+00
  3.53169101e-08  0.00000000e+00  2.41644557e-05  0.00000000e+00  0.00000000e+00
  4.96354666e-09  0.00000000e+00 -3.41479017e-07  0.00000000e+00  0.00000000e+00
 -1.20100474e-07  0.00000000e+00  0.00000000e+00  0.00000000e+00 -3.48266160e-04