
 Primary working directories    : /tmp/yuant
 Secondary working directories  : /tmp/yuant
 Wavefunction directory         : /home/yuant/wfu/
 Main file repository           : /tmp/yuant/

 ARCHNAME  : Linux/x86_64
 FC        : /opt/intel/compilerpro-12.0.1.107/bin/intel64/ifort
 FCVERSION : 12.0.0
 BLASLIB   : 
 id        : scu

 Nodes     nprocs
 linux-en55    1
 ga_uses_ma=false, calling ma_init with nominal heap.
 GA-space will be limited to   8.0 MW (determined by -G option)

 Using customized tuning parameters: mindgm=4; mindgv=4; mindgc=1; mindgr=1; noblas=0; mincuda=1000; minvec=7
 default implementation of scratch files=df  

 MEMORY,100,M
 print, basis, orbitals
 angstrom
 geometry={
 q1
 C,q1,1.0
 N,C,1.22637,q1,90
 O,C,1.17511,q1,90,N,180
 }
 basis=cc-pvtz
 {hf
 open,2.3
 wf,21,3,1
 }
 rccsd
 optg

 Variables initialized (664), CPU time= 0.00 sec
 Commands  initialized (462), CPU time= 0.00 sec, 486 directives.
 Default parameters read. Elapsed time= 0.03 sec

 Checking input...
 Passed
1


                                         ***  PROGRAM SYSTEM MOLPRO  ***
                         Copyright, University College Cardiff Consultants Limited, 2008

                                    Version 2010.1 linked 26 Jan 2011 12:51:57


 **********************************************************************************************************************************
 LABEL *                                                                                 
 Linux-3.4.6-2.10-desktop/linux-en55(x86_64) 64 bit mpp version                          DATE: 27-Nov-18          TIME: 03:28:47  
 **********************************************************************************************************************************

 Patch level:      13
 **********************************************************************************************************************************

 ZUNIT=ANG
 

 Variable memory set to  100000000 words,  buffer space   230000 words

 SETTING BASIS          =    CC-PVTZ


 Recomputing integrals since basis changed


 Using spherical harmonics

 Library entry C      S cc-pVTZ              selected for orbital group  1
 Library entry C      P cc-pVTZ              selected for orbital group  1
 Library entry C      D cc-pVTZ              selected for orbital group  1
 Library entry C      F cc-pVTZ              selected for orbital group  1
 Library entry N      S cc-pVTZ              selected for orbital group  2
 Library entry N      P cc-pVTZ              selected for orbital group  2
 Library entry N      D cc-pVTZ              selected for orbital group  2
 Library entry N      F cc-pVTZ              selected for orbital group  2
 Library entry O      S cc-pVTZ              selected for orbital group  3
 Library entry O      P cc-pVTZ              selected for orbital group  3
 Library entry O      D cc-pVTZ              selected for orbital group  3
 Library entry O      F cc-pVTZ              selected for orbital group  3

1PROGRAM * SEWARD (Integral evaluation for generally contracted gaussian basis sets)     Author: Roland Lindh, 1990

 Geometry written to block  1 of record 700

 Orientation using atomic masses  
 Molecule type: Linear
 Symmetry elements: X,Y
 Rotational constants:      11.7267078     11.7267078      0.0000000 GHz  (calculated with average atomic masses)

 Point group  C2v 



 ATOMIC COORDINATES

 NR  ATOM    CHARGE       X              Y              Z

   1  C       6.00    0.000000000    0.000000000    0.073024303
   2  N       7.00    0.000000000    0.000000000    2.390527739
   3  O       8.00    0.000000000    0.000000000   -2.147611771

 Bond lengths in Bohr (Angstrom)

 1-2  2.317503436  1-3  2.220636074
     (1.226370000)     (1.175110000)

 Bond angles

  2-1-3  179.99999879


 BASIS DATA

   Nr Sym  Nuc  Type         Exponents   Contraction coefficients

   1.1 A1    1  1s         8236.000000     0.000531   -0.000113    0.000000    0.000000
   2.1 A1                  1235.000000     0.004108   -0.000878    0.000000    0.000000
   3.1 A1                   280.800000     0.021087   -0.004540    0.000000    0.000000
   4.1 A1                    79.270000     0.081853   -0.018133    0.000000    0.000000
                             25.590000     0.234817   -0.055760    0.000000    0.000000
                              8.997000     0.434401   -0.126895    0.000000    0.000000
                              3.319000     0.346129   -0.170352    0.000000    0.000000
                              0.905900     0.039378    0.140382    1.000000    0.000000
                              0.364300    -0.008983    0.598684    0.000000    0.000000
                              0.128500     0.002385    0.395389    0.000000    1.000000
   5.1 A1    1  2pz          18.710000     0.014031    0.000000    0.000000
   6.1 A1                     4.133000     0.086866    0.000000    0.000000
   7.1 A1                     1.200000     0.290216    0.000000    0.000000
                              0.382700     0.501008    1.000000    0.000000
                              0.120900     0.343406    0.000000    1.000000
   8.1 A1    1  3d0           1.097000     1.000000
   9.1 A1    1  3d2+          1.097000     1.000000
  10.1 A1    1  3d0           0.318000     1.000000
  11.1 A1    1  3d2+          0.318000     1.000000
  12.1 A1    1  4f0           0.761000     1.000000
  13.1 A1    1  4f2+          0.761000     1.000000
  14.1 A1    2  1s        11420.000000     0.000523   -0.000115    0.000000    0.000000
  15.1 A1                  1712.000000     0.004045   -0.000895    0.000000    0.000000
  16.1 A1                   389.300000     0.020775   -0.004624    0.000000    0.000000
  17.1 A1                   110.000000     0.080727   -0.018528    0.000000    0.000000
                             35.570000     0.233074   -0.057339    0.000000    0.000000
                             12.540000     0.433501   -0.132076    0.000000    0.000000
                              4.644000     0.347472   -0.172510    0.000000    0.000000
                              1.293000     0.041262    0.151814    1.000000    0.000000
                              0.511800    -0.008508    0.599944    0.000000    0.000000
                              0.178700     0.002384    0.387462    0.000000    1.000000
  18.1 A1    2  2pz          26.630000     0.014670    0.000000    0.000000
  19.1 A1                     5.948000     0.091764    0.000000    0.000000
  20.1 A1                     1.742000     0.298683    0.000000    0.000000
                              0.555000     0.498487    1.000000    0.000000
                              0.172500     0.337023    0.000000    1.000000
  21.1 A1    2  3d0           1.654000     1.000000
  22.1 A1    2  3d2+          1.654000     1.000000
  23.1 A1    2  3d0           0.469000     1.000000
  24.1 A1    2  3d2+          0.469000     1.000000
  25.1 A1    2  4f0           1.093000     1.000000
  26.1 A1    2  4f2+          1.093000     1.000000
  27.1 A1    3  1s        15330.000000     0.000508   -0.000115    0.000000    0.000000
  28.1 A1                  2299.000000     0.003929   -0.000895    0.000000    0.000000
  29.1 A1                   522.400000     0.020243   -0.004636    0.000000    0.000000
  30.1 A1                   147.300000     0.079181   -0.018724    0.000000    0.000000
                             47.550000     0.230687   -0.058463    0.000000    0.000000
                             16.760000     0.433118   -0.136463    0.000000    0.000000
                              6.207000     0.350260   -0.175740    0.000000    0.000000
                              1.752000     0.042728    0.160934    1.000000    0.000000
                              0.688200    -0.008154    0.603418    0.000000    0.000000
                              0.238400     0.002381    0.378765    0.000000    1.000000
  31.1 A1    3  2pz          34.460000     0.015928    0.000000    0.000000
  32.1 A1                     7.749000     0.099740    0.000000    0.000000
  33.1 A1                     2.280000     0.310492    0.000000    0.000000
                              0.715600     0.491026    1.000000    0.000000
                              0.214000     0.336337    0.000000    1.000000
  34.1 A1    3  3d0           2.314000     1.000000
  35.1 A1    3  3d2+          2.314000     1.000000
  36.1 A1    3  3d0           0.645000     1.000000
  37.1 A1    3  3d2+          0.645000     1.000000
  38.1 A1    3  4f0           1.428000     1.000000
  39.1 A1    3  4f2+          1.428000     1.000000
   1.2 B1    1  2px          18.710000     0.014031    0.000000    0.000000
   2.2 B1                     4.133000     0.086866    0.000000    0.000000
   3.2 B1                     1.200000     0.290216    0.000000    0.000000
                              0.382700     0.501008    1.000000    0.000000
                              0.120900     0.343406    0.000000    1.000000
   4.2 B1    1  3d1+          1.097000     1.000000
   5.2 B1    1  3d1+          0.318000     1.000000
   6.2 B1    1  4f1+          0.761000     1.000000
   7.2 B1    1  4f3+          0.761000     1.000000
   8.2 B1    2  2px          26.630000     0.014670    0.000000    0.000000
   9.2 B1                     5.948000     0.091764    0.000000    0.000000
  10.2 B1                     1.742000     0.298683    0.000000    0.000000
                              0.555000     0.498487    1.000000    0.000000
                              0.172500     0.337023    0.000000    1.000000
  11.2 B1    2  3d1+          1.654000     1.000000
  12.2 B1    2  3d1+          0.469000     1.000000
  13.2 B1    2  4f1+          1.093000     1.000000
  14.2 B1    2  4f3+          1.093000     1.000000
  15.2 B1    3  2px          34.460000     0.015928    0.000000    0.000000
  16.2 B1                     7.749000     0.099740    0.000000    0.000000
  17.2 B1                     2.280000     0.310492    0.000000    0.000000
                              0.715600     0.491026    1.000000    0.000000
                              0.214000     0.336337    0.000000    1.000000
  18.2 B1    3  3d1+          2.314000     1.000000
  19.2 B1    3  3d1+          0.645000     1.000000
  20.2 B1    3  4f1+          1.428000     1.000000
  21.2 B1    3  4f3+          1.428000     1.000000
   1.3 B2    1  2py          18.710000     0.014031    0.000000    0.000000
   2.3 B2                     4.133000     0.086866    0.000000    0.000000
   3.3 B2                     1.200000     0.290216    0.000000    0.000000
                              0.382700     0.501008    1.000000    0.000000
                              0.120900     0.343406    0.000000    1.000000
   4.3 B2    1  3d1-          1.097000     1.000000
   5.3 B2    1  3d1-          0.318000     1.000000
   6.3 B2    1  4f1-          0.761000     1.000000
   7.3 B2    1  4f3-          0.761000     1.000000
   8.3 B2    2  2py          26.630000     0.014670    0.000000    0.000000
   9.3 B2                     5.948000     0.091764    0.000000    0.000000
  10.3 B2                     1.742000     0.298683    0.000000    0.000000
                              0.555000     0.498487    1.000000    0.000000
                              0.172500     0.337023    0.000000    1.000000
  11.3 B2    2  3d1-          1.654000     1.000000
  12.3 B2    2  3d1-          0.469000     1.000000
  13.3 B2    2  4f1-          1.093000     1.000000
  14.3 B2    2  4f3-          1.093000     1.000000
  15.3 B2    3  2py          34.460000     0.015928    0.000000    0.000000
  16.3 B2                     7.749000     0.099740    0.000000    0.000000
  17.3 B2                     2.280000     0.310492    0.000000    0.000000
                              0.715600     0.491026    1.000000    0.000000
                              0.214000     0.336337    0.000000    1.000000
  18.3 B2    3  3d1-          2.314000     1.000000
  19.3 B2    3  3d1-          0.645000     1.000000
  20.3 B2    3  4f1-          1.428000     1.000000
  21.3 B2    3  4f3-          1.428000     1.000000
   1.4 A2    1  3d2-          1.097000     1.000000
   2.4 A2    1  3d2-          0.318000     1.000000
   3.4 A2    1  4f2-          0.761000     1.000000
   4.4 A2    2  3d2-          1.654000     1.000000
   5.4 A2    2  3d2-          0.469000     1.000000
   6.4 A2    2  4f2-          1.093000     1.000000
   7.4 A2    3  3d2-          2.314000     1.000000
   8.4 A2    3  3d2-          0.645000     1.000000
   9.4 A2    3  4f2-          1.428000     1.000000

 NUCLEAR CHARGE:                   21
 NUMBER OF PRIMITIVE AOS:         141
 NUMBER OF SYMMETRY AOS:          126
 NUMBER OF CONTRACTIONS:           90   (  39A1  +  21B1  +  21B2  +   9A2  )
 NUMBER OF CORE ORBITALS:           3   (   3A1  +   0B1  +   0B2  +   0A2  )
 NUMBER OF VALENCE ORBITALS:       12   (   6A1  +   3B1  +   3B2  +   0A2  )


 NUCLEAR REPULSION ENERGY   52.07823748

 EXTRA SYMMETRY OF AOS IN SYMMETRY 1:   1 1 1 1 1 1 1 1 2 1   2 1 2 1 1 1 1 1 1 1   1 2 1 2 1 2 1 1 1 1   1 1 1 1 2 1 2 1 2
 EXTRA SYMMETRY OF AOS IN SYMMETRY 2:   1 1 1 1 1 1 2 1 1 1   1 1 1 2 1 1 1 1 1 1   2
 EXTRA SYMMETRY OF AOS IN SYMMETRY 3:   1 1 1 1 1 1 2 1 1 1   1 1 1 2 1 1 1 1 1 1   2

 Eigenvalues of metric

         1 0.126E-02 0.209E-02 0.258E-02 0.494E-02 0.119E-01 0.242E-01 0.342E-01 0.504E-01
         2 0.179E-01 0.291E-01 0.427E-01 0.721E-01 0.843E-01 0.109E+00 0.291E+00 0.365E+00
         3 0.179E-01 0.291E-01 0.427E-01 0.721E-01 0.843E-01 0.109E+00 0.291E+00 0.365E+00
         4 0.315E+00 0.343E+00 0.544E+00 0.615E+00 0.895E+00 0.122E+01 0.128E+01 0.181E+01


 Contracted 2-electron integrals neglected if value below      1.0D-11
 AO integral compression algorithm  1   Integral accuracy      1.0D-11

     10.486 MB (compressed) written to integral file ( 47.1%)

     Node minimum: 10.486 MB, node maximum: 10.486 MB


 NUMBER OF SORTED TWO-ELECTRON INTEGRALS:    2232423.     BUFFER LENGTH:  32768
 NUMBER OF SEGMENTS:   1  SEGMENT LENGTH:    2232423      RECORD LENGTH: 524288

 Memory used in sort:       2.79 MW

 SORT1 READ     2718252. AND WROTE     1811921. INTEGRALS IN      6 RECORDS. CPU TIME:     0.05 SEC, REAL TIME:     0.06 SEC
 SORT2 READ     1811921. AND WROTE     2232423. INTEGRALS IN     40 RECORDS. CPU TIME:     0.04 SEC, REAL TIME:     0.05 SEC

 FILE SIZES:   FILE 1:    11.1 MBYTE,  FILE 4:    25.2 MBYTE,   TOTAL:     36.3 MBYTE

 OPERATOR DM      FOR CENTER  0  COORDINATES:    0.000000    0.000000    0.000000


 **********************************************************************************************************************************
 DATASETS  * FILE   NREC   LENGTH (MB)   RECORD NAMES
              1      19       11.13       500      610      700      900      950      970     1000      129      960     1100   
                                          VAR    BASINP    GEOM    SYMINP    ZMAT    AOBASIS   BASIS     P2S    ABASIS      S 
                                         1400     1410     1200     1210     1080     1600     1650     1300     1700   
                                           T        V       H0       H01     AOSYM     SMH    MOLCAS    ERIS     OPER   

 PROGRAMS   *        TOTAL       INT
 CPU TIMES  *         0.56      0.52
 REAL TIME  *         0.70 SEC
 DISK USED  *        47.30 MB      
 GA USED    *         0.00 MB       (max)       0.00 MB       (current)
 **********************************************************************************************************************************

1PROGRAM * RHF-SCF (OPEN SHELL)       Authors: W. Meyer, H.-J. Werner


 NUMBER OF ELECTRONS:      11+   10-    SPACE SYMMETRY=3    SPIN SYMMETRY=Doublet 
 CONVERGENCE THRESHOLDS:    1.00E-06 (Density)    1.00E-07 (Energy)
 MAX. NUMBER OF ITERATIONS:       60
 INTERPOLATION TYPE:            DIIS
 INTERPOLATION STEPS:              2 (START)      1 (STEP)
 LEVEL SHIFTS:                 -0.30 (CLOSED)  0.00 (OPEN) 


 Singly occupied orbitals:      2.3
 Orbital guess generated from atomic densities. Full valence occupancy:    9   3   3   0

 Molecular orbital dump at record        2100.2

 ITERATION    DDIFF          GRAD             ENERGY        2-EL.EN.            DIPOLE MOMENTS         DIIS
    1      0.000D+00      0.000D+00      -167.13161857    221.461193    0.00000    0.00000   -0.10548    0
    2      0.000D+00      0.122D-01      -167.16890255    222.251978    0.00000    0.00000   -0.22994    1
    3      0.162D-01      0.476D-02      -167.17630423    222.631641    0.00000    0.00000   -0.06764    2
    4      0.570D-02      0.165D-02      -167.17821143    222.524731    0.00000    0.00000   -0.12253    3
    5      0.199D-02      0.725D-03      -167.17902137    222.548816    0.00000    0.00000   -0.10228    4
    6      0.132D-02      0.402D-03      -167.17931538    222.542954    0.00000    0.00000   -0.12045    5
    7      0.934D-03      0.193D-03      -167.17938062    222.539489    0.00000    0.00000   -0.12123    6
    8      0.529D-03      0.730D-04      -167.17939447    222.541956    0.00000    0.00000   -0.11909    7
    9      0.266D-03      0.295D-04      -167.17939657    222.541815    0.00000    0.00000   -0.11893    8
   10      0.111D-03      0.130D-04      -167.17939683    222.542323    0.00000    0.00000   -0.11802    9
   11      0.431D-04      0.453D-05      -167.17939687    222.542320    0.00000    0.00000   -0.11800    9
   12      0.179D-04      0.217D-05      -167.17939688    222.542349    0.00000    0.00000   -0.11795    9
   13      0.590D-05      0.680D-06      -167.17939688    222.542358    0.00000    0.00000   -0.11797    9
   14      0.280D-05      0.212D-06      -167.17939688    222.542356    0.00000    0.00000   -0.11797    9
   15      0.550D-06      0.715D-07      -167.17939688    222.542358    0.00000    0.00000   -0.11797    0

 Final alpha occupancy:   7   2   2   0
 Final beta  occupancy:   7   2   1   0

 !RHF STATE 1.3 Energy               -167.179396876294
 Nuclear energy                        52.07823748
 One-electron energy                 -330.52881359
 Two-electron energy                  111.27117924
 Virial quotient                       -1.00159434
 !RHF STATE 1.3 Dipole moment           0.00000000     0.00000000    -0.11796620
 Dipole moment /Debye                   0.00000000     0.00000000    -0.29982053

 ELECTRON ORBITALS
 =================


   Orb  Occ    Energy  Couls-En    Coefficients

                                   1 1s      1 1s      1 1s      1 1s      1 2pz     1 2pz     1 2pz     1 3d0     1 3d2+    1 3d0  
                                   1 3d2+    1 4f0     1 4f2+    2 1s      2 1s      2 1s      2 1s      2 2pz     2 2pz     2 2pz  
                                   2 3d0     2 3d2+    2 3d0     2 3d2+    2 4f0     2 4f2+    3 1s      3 1s      3 1s      3 1s   
                                   3 2pz     3 2pz     3 2pz     3 3d0     3 3d2+    3 3d0     3 3d2+    3 4f0     3 4f2+ 

   1.1   2   -20.6660  -56.8334  0.000884  0.003169 -0.000531 -0.001066 -0.001161 -0.000951  0.001561  0.000459 -0.000006  0.001104
                                -0.000011  0.000077  0.000006 -0.000229 -0.000750  0.000101 -0.000557  0.000034  0.000277 -0.000116
                                -0.000097 -0.000001  0.000062 -0.000001  0.000079  0.000001  0.998840 -0.002736  0.001222  0.001052
                                 0.005577 -0.004804 -0.001770  0.000193  0.000058 -0.000632  0.000045 -0.000107 -0.000002

   2.1   2   -15.6445  -44.4250  0.000835  0.002762 -0.000226 -0.002807  0.001510 -0.001242 -0.002093  0.000227  0.000013  0.000618
                                 0.000002 -0.000807  0.000013  0.999095 -0.001759  0.001163  0.003132 -0.007530  0.005261  0.001421
                                 0.000477  0.000084 -0.000355  0.000120  0.000006 -0.000023 -0.000439 -0.001401  0.000260 -0.000522
                                 0.000009 -0.000855  0.000074 -0.000106 -0.000001 -0.000176  0.000001 -0.000097  0.000002

   3.1   2   -11.4321  -35.9867  0.998988  0.000815  0.002322 -0.002882 -0.001283  0.001442  0.000524  0.001727 -0.000009 -0.001490
                                 0.000026  0.000010  0.000044 -0.000191  0.001274  0.000168  0.000020 -0.000973  0.000449  0.000107
                                -0.000057  0.000014 -0.000515  0.000025  0.000194 -0.000013 -0.000120  0.001263  0.000109  0.001249
                                 0.001114 -0.000259  0.000294  0.000057 -0.000004 -0.000450 -0.000016 -0.000089 -0.000005

   4.1   2    -1.5015  -13.2705 -0.022189  0.438561 -0.001094 -0.108967 -0.285620  0.066012  0.105077  0.026358 -0.000557  0.027936
                                -0.001291 -0.004319  0.000517 -0.005075  0.066401  0.002461 -0.057284 -0.040889  0.016791  0.029519
                                 0.001418  0.000062 -0.006590  0.000491  0.001325  0.000026 -0.010170  0.797563 -0.006310 -0.091573
                                 0.210256 -0.001251 -0.060572  0.009139  0.000105  0.017680  0.000085  0.004844 -0.000227

   5.1   2    -1.2569  -11.9941 -0.014512  0.432420 -0.002028 -0.121745  0.452618 -0.089321 -0.144366  0.019383  0.000327  0.013474
                                 0.001446  0.006498  0.000148 -0.014677  0.723413 -0.007029 -0.111170 -0.271082  0.011341  0.071171
                                 0.015386  0.000321  0.022234  0.002161 -0.006416  0.000284  0.001105 -0.190372  0.002561 -0.016544
                                -0.012471 -0.009021 -0.006696 -0.001224 -0.000017 -0.009881 -0.000679 -0.002213 -0.000065

   6.1   2    -0.7795  -11.1085 -0.002121  0.458520  0.004424 -0.145861 -0.350070  0.065047  0.149980  0.013436 -0.000432 -0.004667
                                -0.001411 -0.003906  0.000217  0.002034 -0.199149  0.001438 -0.050306 -0.071073  0.010106  0.012398
                                 0.000220  0.000061 -0.005134  0.000469  0.002045  0.000085 -0.006426 -0.465284 -0.004108 -0.092394
                                 0.731310 -0.011408 -0.055188  0.012413 -0.000165  0.028261 -0.000638  0.005644 -0.000566

   7.1   2    -0.6320   -9.6048 -0.001731 -0.311171 -0.000247  0.121932 -0.430830  0.068317  0.182489 -0.006308  0.000278  0.014508
                                 0.001859 -0.006096  0.000919  0.007478  0.547235  0.003687  0.069874  0.699099 -0.026100 -0.025882
                                -0.015936 -0.000123 -0.032285 -0.001034  0.005170 -0.001369 -0.004221 -0.038376 -0.000851 -0.008459
                                 0.207329 -0.001080 -0.013910  0.003654 -0.000008  0.011976  0.000049  0.002865 -0.000053

                                   1 2px     1 2px     1 2px     1 3d1+    1 3d1+    1 4f1+    1 4f3+    2 2px     2 2px     2 2px  
                                   2 3d1+    2 3d1+    2 4f1+    2 4f3+    3 2px     3 2px     3 2px     3 3d1+    3 3d1+    3 4f1+ 
                                   3 4f3+ 

   1.2   2    -0.6845  -10.6885  0.519475 -0.012976 -0.099813 -0.010385 -0.014746  0.017932 -0.001041  0.296727 -0.003486 -0.018073
                                -0.008389 -0.016553  0.002621 -0.000834  0.690323  0.000703 -0.021540  0.009994  0.023999  0.005206
                                -0.000634

   2.2   2    -0.4746   -9.7643  0.239527  0.005503 -0.020938  0.036710  0.063151  0.004898 -0.000458  0.705805 -0.009769  0.031156
                                -0.013030 -0.032662  0.006074 -0.002060 -0.532448 -0.000930 -0.042180 -0.002854 -0.014336 -0.003086
                                 0.000463

                                   1 2py     1 2py     1 2py     1 3d1-    1 3d1-    1 4f1-    1 4f3-    2 2py     2 2py     2 2py  
                                   2 3d1-    2 3d1-    2 4f1-    2 4f3-    3 2py     3 2py     3 2py     3 3d1-    3 3d1-    3 4f1- 
                                   3 4f3- 

   1.3   2    -0.6472  -10.7420  0.497580 -0.007805 -0.081319 -0.019968 -0.035018  0.016001 -0.000999  0.110941 -0.000033 -0.025154
                                -0.005168 -0.008625  0.001093 -0.000311  0.742646  0.003748 -0.007780  0.011075  0.029254  0.005742
                                -0.000696

   2.3   +    -0.5489   -9.6798  0.266607 -0.001347 -0.054656  0.032440  0.060264  0.008341 -0.001208  0.816776 -0.000008  0.007400
                                -0.014385 -0.038246  0.003673 -0.005301 -0.333852 -0.001701 -0.031430 -0.001446 -0.009059 -0.001769
                                 0.000446


 **********************************************************************************************************************************
 DATASETS  * FILE   NREC   LENGTH (MB)   RECORD NAMES
              1      19       11.13       500      610      700      900      950      970     1000      129      960     1100   
                                          VAR    BASINP    GEOM    SYMINP    ZMAT    AOBASIS   BASIS     P2S    ABASIS      S 
                                         1400     1410     1200     1210     1080     1600     1650     1300     1700   
                                           T        V       H0       H01     AOSYM     SMH    MOLCAS    ERIS     OPER   

              2       3        0.36       700     1000     2100   
                                         GEOM     BASIS     RHF  

 PROGRAMS   *        TOTAL        HF       INT
 CPU TIMES  *         0.69      0.13      0.52
 REAL TIME  *         0.85 SEC
 DISK USED  *        47.30 MB      
 GA USED    *         0.00 MB       (max)       0.00 MB       (current)
 **********************************************************************************************************************************


1PROGRAM * CCSD (Restricted open-shell coupled cluster)     Authors: C. Hampel, H.-J. Werner, 1991, M. Deegan, P.J. Knowles, 1992


 Convergence thresholds:  THRVAR = 1.00D-12  THRDEN = 1.00D-08

 Number of core orbitals:           3 (   3   0   0   0 )
 Number of closed-shell orbitals:   7 (   4   2   1   0 )
 Number of active  orbitals:        1 (   0   0   1   0 )
 Number of external orbitals:      79 (  32  19  19   9 )

 Number of N-1 electron functions:              15
 Number of N-2 electron functions:             105
 Number of singly external CSFs:               392
 Number of doubly external CSFs:            133491
 Total number of CSFs:                      133883

 Molecular orbitals read from record     2100.2  Type=RHF/CANONICAL (state 1.3)

 Integral transformation finished. Total CPU:   0.05 sec, npass=  1  Memory used:   0.35 MW

 Starting RMP2 calculation

 Wavefunction is spin-projected

 ITER.      SQ.NORM     CORR.ENERGY   TOTAL ENERGY   ENERGY CHANGE        DEN1      VAR(S)    VAR(P)  DIIS     TIME
   1      1.15480879    -0.53491590  -167.71431278    -0.53491590    -0.00219495  0.27D-04  0.91D-03  1  1     0.06
   2      1.15714051    -0.53731351  -167.71671039    -0.00239761    -0.00000847  0.80D-06  0.40D-05  2  2     0.06
   3      1.15725988    -0.53738200  -167.71677887    -0.00006848    -0.00000004  0.18D-07  0.14D-07  3  3     0.07
   4      1.15726206    -0.53738238  -167.71677926    -0.00000038     0.00000000  0.34D-09  0.55D-10  4  4     0.08
   5      1.15726215    -0.53738243  -167.71677930    -0.00000005     0.00000000  0.41D-11  0.48D-12  5  5     0.09
   6      1.15726216    -0.53738243  -167.71677931     0.00000000     0.00000000  0.16D-13  0.80D-14  6  6     0.09

 Norm of t1 vector:      0.03918177      S-energy:    -0.00295434      T1 diagnostic:  0.00076739
 Norm of t2 vector:      0.39462253      P-energy:    -0.53442810
                                         Alpha-Beta:  -0.39381236
                                         Alpha-Alpha: -0.07914218
                                         Beta-Beta:   -0.06147355

 Spin contamination <S**2-Sz**2-Sz>     0.00000000
  Reference energy                   -167.179396876295
  RHF-RMP2 correlation energy          -0.537382430853
 !RHF-RMP2 energy                    -167.716779307148
 (NB above energy spin projected)

 Starting RCCSD calculation

 ITER.      SQ.NORM     CORR.ENERGY   TOTAL ENERGY   ENERGY CHANGE        DEN1      VAR(S)    VAR(P)  DIIS     TIME
   1      1.14935512    -0.52172835  -167.70112523    -0.52172835    -0.01721751  0.62D-02  0.25D-02  1  1     0.28
   2      1.16513987    -0.53633549  -167.71573236    -0.01460713    -0.00223146  0.46D-03  0.68D-03  2  2     0.47
   3      1.17592680    -0.53949817  -167.71889505    -0.00316269    -0.00051084  0.43D-03  0.56D-04  3  3     0.66
   4      1.18385011    -0.54127158  -167.72066846    -0.00177341    -0.00015508  0.11D-03  0.25D-04  4  4     0.84
   5      1.19065543    -0.54213492  -167.72153179    -0.00086333    -0.00004862  0.44D-04  0.51D-05  5  5     1.03
   6      1.19568520    -0.54255160  -167.72194847    -0.00041668    -0.00000772  0.38D-05  0.18D-05  6  6     1.22
   7      1.19758114    -0.54271832  -167.72211519    -0.00016672    -0.00000116  0.67D-06  0.22D-06  6  1     1.41
   8      1.19796300    -0.54272704  -167.72212391    -0.00000872    -0.00000016  0.47D-07  0.47D-07  6  3     1.59
   9      1.19803436    -0.54273885  -167.72213572    -0.00001181    -0.00000002  0.89D-08  0.55D-08  6  2     1.78
  10      1.19804336    -0.54273871  -167.72213559     0.00000013     0.00000000  0.12D-08  0.99D-09  6  5     1.97
  11      1.19805674    -0.54273966  -167.72213653    -0.00000094     0.00000000  0.19D-09  0.13D-09  6  4     2.16
  12      1.19805719    -0.54273926  -167.72213614     0.00000039     0.00000000  0.35D-10  0.25D-10  6  6     2.34
  13      1.19805662    -0.54273907  -167.72213595     0.00000019     0.00000000  0.13D-10  0.34D-11  6  1     2.53
  14      1.19805539    -0.54273890  -167.72213578     0.00000017     0.00000000  0.50D-11  0.12D-11  6  3     2.71
  15      1.19805401    -0.54273876  -167.72213564     0.00000014     0.00000000  0.21D-11  0.20D-12  6  2     2.91
  16      1.19805296    -0.54273867  -167.72213554     0.00000010     0.00000000  0.22D-12  0.12D-12  6  5     3.09
  17      1.19805263    -0.54273864  -167.72213552     0.00000003     0.00000000  0.67D-13  0.19D-13  6  4     3.28
  18      1.19805247    -0.54273863  -167.72213551     0.00000001     0.00000000  0.12D-13  0.49D-14  6  6     3.47
  19      1.19805241    -0.54273863  -167.72213550     0.00000001     0.00000000  0.24D-14  0.92D-15  6  1     3.66

 Norm of t1 vector:      0.17898048      S-energy:    -0.00397414      T1 diagnostic:  0.03079715
                                                                       D1 diagnostic:  0.09925074
 Norm of t2 vector:      0.40745355      P-energy:    -0.53876448
                                         Alpha-Beta:  -0.41557577
                                         Alpha-Alpha: -0.06918270
                                         Beta-Beta:   -0.05400601

 Singles amplitudes (print threshold =  0.500E-01):

         I         SYM. A    A   T(IA) [Beta-Beta]

         7         3         1      0.14036174
         7         3         2      0.05465094

 Doubles amplitudes (print threshold =  0.500E-01):

         I         J         SYM. A    SYM. B    A         B      T(IJ, AB) [Alpha-Beta]

         6         6         2         2         1         1     -0.07723419
         7         7         3         3         2         2     -0.06082857
         8         7         3         3         2         1      0.06386761
         8         6         3         2         2         1     -0.05261523

 Spin contamination <S**2-Sz**2-Sz>     0.00000000
 

 RESULTS
 =======

  Reference energy                   -167.179396876295
  RCCSD singles energy                 -0.003974144320
  RCCSD pair energy                    -0.538764482275
  RCCSD correlation energy             -0.542738626595
 
 !RHF-RCCSD energy                   -167.722135502890

 Program statistics:

 Available memory in ccsd:                99999308
 Min. memory needed in ccsd:                429958
 Max. memory used in ccsd:                  586804
 Max. memory used in cckext:                559419 (19 integral passes)
 Max. memory used in cckint:                350437 ( 1 integral passes)



 **********************************************************************************************************************************
 DATASETS  * FILE   NREC   LENGTH (MB)   RECORD NAMES
              1      19       11.13       500      610      700      900      950      970     1000      129      960     1100   
                                          VAR    BASINP    GEOM    SYMINP    ZMAT    AOBASIS   BASIS     P2S    ABASIS      S 
                                         1400     1410     1200     1210     1080     1600     1650     1300     1700   
                                           T        V       H0       H01     AOSYM     SMH    MOLCAS    ERIS     OPER   

              2       3        0.36       700     1000     2100   
                                         GEOM     BASIS     RHF  

 PROGRAMS   *        TOTAL     RCCSD        HF       INT
 CPU TIMES  *         4.36      3.67      0.13      0.52
 REAL TIME  *         4.67 SEC
 DISK USED  *        57.61 MB      
 GA USED    *         0.00 MB       (max)       0.00 MB       (current)
 **********************************************************************************************************************************


 PROGRAM * OPT (Geometry optimization)     Authors: F. Eckert and H.-J. Werner


 BFGS update of hessian

 *** Long output written to logfile /home/yuant/hxk/OPT/NCO-opt-ccsd.log ***


 Geometry optimization using default procedure for command RCCSD

 Geometry written to block  1 of record 701

 Generated   2 symmetrical displacements

 Number of displacements for numerical gradient:      4

 Starting numerical gradient for RCCSD
 Numerical gradient completed. CPU-time:    17.32 sec, Elapsed:    17.38 sec

 Making model hessian for cartesian coordinates

 Quadratic Steepest Descent - Minimum Search

 Optimization point  1

 Variable                      Last           Current        Next           Gradient       Hessian
 E(RCCSD) / Hartree          0.00000000  -167.72213550     0.00000000
 CX1 / BOHR                  0.00000000     0.00000000     0.00000000     0.00000000     0.00000000
 CY1 / BOHR                  0.00000000     0.00000000     0.00000000     0.00000000     0.00000000
 CZ1 / BOHR                  0.00000000     0.07302430     0.06895640     0.01325969     0.00000000
 NX2 / BOHR                  0.00000000     0.00000000     0.00000000     0.00000000     0.00000000
 NY2 / BOHR                  0.00000000     0.00000000     0.00000000     0.00000000     0.00000000
 NZ2 / BOHR                  0.00000000     2.39052774     2.39100500    -0.00451933     0.65677663
 OX3 / BOHR                  0.00000000     0.00000000     0.00000000     0.00000000     0.65677663
 OY3 / BOHR                  0.00000000     0.00000000     0.00000000     0.00000000     1.09191141
 OZ3 / BOHR                  0.00000000    -2.14761177    -2.14402114    -0.00874036     3.21539320
 Convergence:                0.00000000  (line search)     0.00544686     0.01651174  (total)

 Number of displacements for numerical gradient:      4

 Starting numerical gradient for RCCSD
 Numerical gradient completed. CPU-time:    17.53 sec, Elapsed:    17.57 sec

 Optimization point  2

 Variable                      Last           Current        Next           Gradient       Hessian
 E(RCCSD) / Hartree       -167.72213550  -167.72219411     0.00000000
 CX1 / BOHR                  0.00000000     0.00000000     0.00000000     0.00000000     0.00000000
 CY1 / BOHR                  0.00000000     0.00000000     0.00000000     0.00000000     0.00000000
 CZ1 / BOHR                  0.07302430     0.06895640     0.06674301     0.00460370     0.00000000
 NX2 / BOHR                  0.00000000     0.00000000     0.00000000     0.00000000     0.00000000
 NY2 / BOHR                  0.00000000     0.00000000     0.00000000     0.00000000     0.00000000
 NZ2 / BOHR                  2.39052774     2.39100500     2.39226125    -0.00229606     0.66024180
 OX3 / BOHR                  0.00000000     0.00000000     0.00000000     0.00000000     0.66024180
 OY3 / BOHR                  0.00000000     0.00000000     0.00000000     0.00000000     1.09296684
 OZ3 / BOHR                 -2.14761177    -2.14402114    -2.14306399    -0.00230764     3.22443544
 Convergence:                0.00000000  (line search)     0.00271908     0.00563836  (total)

 Number of displacements for numerical gradient:      4

 Starting numerical gradient for RCCSD
 Numerical gradient completed. CPU-time:    17.52 sec, Elapsed:    17.59 sec

 Optimization point  3

 Variable                      Last           Current        Next           Gradient       Hessian
 E(RCCSD) / Hartree       -167.72219411  -167.72220214     0.00000000
 CX1 / BOHR                  0.00000000     0.00000000     0.00000000     0.00000000     0.00000000
 CY1 / BOHR                  0.00000000     0.00000000     0.00000000     0.00000000     0.00000000
 CZ1 / BOHR                  0.06895640     0.06674301     0.06670268     0.00003762     0.00000000
 NX2 / BOHR                  0.00000000     0.00000000     0.00000000     0.00000000     0.00000000
 NY2 / BOHR                  0.00000000     0.00000000     0.00000000     0.00000000     0.00000000
 NZ2 / BOHR                  2.39100500     2.39226125     2.39247630    -0.00023523     0.65987780
 OX3 / BOHR                  0.00000000     0.00000000     0.00000000     0.00000000     0.65987780
 OY3 / BOHR                  0.00000000     0.00000000     0.00000000     0.00000000     1.09198427
 OZ3 / BOHR                 -2.14402114    -2.14306399    -2.14323871     0.00019761     3.22542333
 Convergence:                0.00000000  (line search)     0.00028000     0.00030952  (total)

 Number of displacements for numerical gradient:      4

 Starting numerical gradient for RCCSD
 Numerical gradient completed. CPU-time:    17.52 sec, Elapsed:    17.76 sec

 Optimization point  4

 Variable                      Last           Current        Next           Gradient       Hessian
 E(RCCSD) / Hartree       -167.72220214  -167.72220218     0.00000000
 CX1 / BOHR                  0.00000000     0.00000000     0.00000000     0.00000000     0.00000000
 CY1 / BOHR                  0.00000000     0.00000000     0.00000000     0.00000000     0.00000000
 CZ1 / BOHR                  0.06674301     0.06670268     0.06669944    -0.00000114     0.00000000
 NX2 / BOHR                  0.00000000     0.00000000     0.00000000     0.00000000     0.00000000
 NY2 / BOHR                  0.00000000     0.00000000     0.00000000     0.00000000     0.00000000
 NZ2 / BOHR                  2.39226125     2.39247630     2.39251189    -0.00003212     0.65943725
 OX3 / BOHR                  0.00000000     0.00000000     0.00000000     0.00000000     0.65943725
 OY3 / BOHR                  0.00000000     0.00000000     0.00000000     0.00000000     1.09167779
 OZ3 / BOHR                 -2.14306399    -2.14323871    -2.14327106     0.00003326     3.22465805
 Convergence:                0.00000000  (line search)     0.00004821     0.00004626  (total)

 END OF GEOMETRY OPTIMIZATION.    TOTAL CPU:        83.5 SEC

 ITER.   ENERGY(OLD)    ENERGY(NEW)      DE          GRADMAX     GRADNORM    GRADRMS     STEPMAX     STEPLEN     STEPRMS
   1  -167.72213550  -167.72219411    -0.00005861  0.01637661  0.01651174  0.00412794  0.00509319  0.00544686  0.00314474
   2  -167.72219411  -167.72220214    -0.00000803  0.00562857  0.00563836  0.00140959  0.00269313  0.00271908  0.00156986
   3  -167.72220214  -167.72220218    -0.00000004  0.00030839  0.00030952  0.00007738  0.00027820  0.00028000  0.00016166
   4  -167.72220218  -167.72220218     0.00000000  0.00004605  0.00004626  0.00001156  0.00004820  0.00004821  0.00002784

 Geometry written to block  1 of record 701


 **********************************************************************************************************************************
 DATASETS  * FILE   NREC   LENGTH (MB)   RECORD NAMES
              1      19       11.15       500      610      701      900      950      970     1000      129      960     1100   
                                          VAR    BASINP    GEOM    SYMINP    ZMAT    AOBASIS   BASIS     P2S    ABASIS      S 
                                         1400     1410     1200     1210     1080     1600     1650     1300     1700   
                                           T        V       H0       H01     AOSYM     SMH    MOLCAS    ERIS     OPER   

              2       5        0.61       700     1000     2100      701     5600   
                                         GEOM     BASIS     RHF     GEOM     GINFO   

 PROGRAMS   *        TOTAL      OPTG     RCCSD        HF       INT
 CPU TIMES  *        87.83     83.46      3.67      0.13      0.52
 REAL TIME  *        92.50 SEC
 DISK USED  *        58.01 MB      
 GA USED    *         0.00 MB       (max)       0.00 MB       (current)
 **********************************************************************************************************************************

     OPTG(RCCSD)        RCCSD           HF-SCF  
   -167.72220218   -167.72213550   -167.17939688
 **********************************************************************************************************************************
 Variable memory released
