
 Primary working directories    : /tmp/yuant
 Secondary working directories  : /tmp/yuant
 Wavefunction directory         : /home/yuant/wfu/
 Main file repository           : /tmp/yuant/

 ARCHNAME  : Linux/x86_64
 FC        : /opt/intel/compilerpro-12.0.1.107/bin/intel64/ifort
 FCVERSION : 12.0.0
 BLASLIB   : 
 id        : scu

 Nodes     nprocs
 linux-en55    1
 ga_uses_ma=false, calling ma_init with nominal heap.
 GA-space will be limited to   8.0 MW (determined by -G option)

 Using customized tuning parameters: mindgm=4; mindgv=4; mindgc=1; mindgr=1; noblas=0; mincuda=1000; minvec=7
 default implementation of scratch files=df  

 MEMORY,1000,M
 print, basis, orbitals
 angstrom
 geometry={
 q1
 C,q1,1.0
 N,C,1.22637,q1,90
 O,C,1.17511,q1,90,N,180
 }
 basis=cc-pvqz
 {hf
 open,2.3
 wf,21,3,1
 }
 rccsd(t)
 optg

 Variables initialized (664), CPU time= 0.00 sec
 Commands  initialized (462), CPU time= 0.00 sec, 486 directives.
 Default parameters read. Elapsed time= 0.01 sec

 Checking input...
 Passed
1


                                         ***  PROGRAM SYSTEM MOLPRO  ***
                         Copyright, University College Cardiff Consultants Limited, 2008

                                    Version 2010.1 linked 26 Jan 2011 12:51:57


 **********************************************************************************************************************************
 LABEL *                                                                                 
 Linux-3.4.6-2.10-desktop/linux-en55(x86_64) 64 bit mpp version                          DATE: 27-Nov-18          TIME: 03:42:25  
 **********************************************************************************************************************************

 Patch level:      13
 **********************************************************************************************************************************

 ZUNIT=ANG
 

 Variable memory set to 1000000000 words,  buffer space   230000 words

 SETTING BASIS          =    CC-PVQZ


 Recomputing integrals since basis changed


 Using spherical harmonics

 Library entry C      S cc-pVQZ              selected for orbital group  1
 Library entry C      P cc-pVQZ              selected for orbital group  1
 Library entry C      D cc-pVQZ              selected for orbital group  1
 Library entry C      F cc-pVQZ              selected for orbital group  1
 Library entry C      G cc-pVQZ              selected for orbital group  1
 Library entry N      S cc-pVQZ              selected for orbital group  2
 Library entry N      P cc-pVQZ              selected for orbital group  2
 Library entry N      D cc-pVQZ              selected for orbital group  2
 Library entry N      F cc-pVQZ              selected for orbital group  2
 Library entry N      G cc-pVQZ              selected for orbital group  2
 Library entry O      S cc-pVQZ              selected for orbital group  3
 Library entry O      P cc-pVQZ              selected for orbital group  3
 Library entry O      D cc-pVQZ              selected for orbital group  3
 Library entry O      F cc-pVQZ              selected for orbital group  3
 Library entry O      G cc-pVQZ              selected for orbital group  3

1PROGRAM * SEWARD (Integral evaluation for generally contracted gaussian basis sets)     Author: Roland Lindh, 1990

 Geometry written to block  1 of record 700

 Orientation using atomic masses  
 Molecule type: Linear
 Symmetry elements: X,Y
 Rotational constants:      11.7267078     11.7267078      0.0000000 GHz  (calculated with average atomic masses)

 Point group  C2v 



 ATOMIC COORDINATES

 NR  ATOM    CHARGE       X              Y              Z

   1  C       6.00    0.000000000    0.000000000    0.073024303
   2  N       7.00    0.000000000    0.000000000    2.390527739
   3  O       8.00    0.000000000    0.000000000   -2.147611771

 Bond lengths in Bohr (Angstrom)

 1-2  2.317503436  1-3  2.220636074
     (1.226370000)     (1.175110000)

 Bond angles

  2-1-3  179.99999879


 BASIS DATA

   Nr Sym  Nuc  Type         Exponents   Contraction coefficients

   1.1 A1    1  1s        33980.000000     0.000091   -0.000019    0.000000    0.000000    0.000000
   2.1 A1                  5089.000000     0.000704   -0.000151    0.000000    0.000000    0.000000
   3.1 A1                  1157.000000     0.003693   -0.000785    0.000000    0.000000    0.000000
   4.1 A1                   326.600000     0.015360   -0.003324    0.000000    0.000000    0.000000
   5.1 A1                   106.100000     0.052929   -0.011512    0.000000    0.000000    0.000000
                             38.110000     0.147043   -0.034160    0.000000    0.000000    0.000000
                             14.750000     0.305631   -0.077173    0.000000    0.000000    0.000000
                              6.035000     0.399345   -0.141493    0.000000    0.000000    0.000000
                              2.530000     0.217051   -0.118019    0.000000    0.000000    0.000000
                              0.735500     0.015894    0.273806    1.000000    0.000000    0.000000
                              0.290500    -0.003084    0.586510    0.000000    1.000000    0.000000
                              0.111100     0.000978    0.285430    0.000000    0.000000    1.000000
   6.1 A1    1  2pz          34.510000     0.005378    0.000000    0.000000    0.000000
   7.1 A1                     7.915000     0.036132    0.000000    0.000000    0.000000
   8.1 A1                     2.368000     0.142493    0.000000    0.000000    0.000000
   9.1 A1                     0.813200     0.342150    1.000000    0.000000    0.000000
                              0.289000     0.463864    0.000000    1.000000    0.000000
                              0.100700     0.250028    0.000000    0.000000    1.000000
  10.1 A1    1  3d0           1.848000     1.000000
  11.1 A1    1  3d2+          1.848000     1.000000
  12.1 A1    1  3d0           0.649000     1.000000
  13.1 A1    1  3d2+          0.649000     1.000000
  14.1 A1    1  3d0           0.228000     1.000000
  15.1 A1    1  3d2+          0.228000     1.000000
  16.1 A1    1  4f0           1.419000     1.000000
  17.1 A1    1  4f2+          1.419000     1.000000
  18.1 A1    1  4f0           0.485000     1.000000
  19.1 A1    1  4f2+          0.485000     1.000000
  20.1 A1    1  5g0           1.011000     1.000000
  21.1 A1    1  5g4+          1.011000     1.000000
  22.1 A1    1  5g2+          1.011000     1.000000
  23.1 A1    2  1s        45840.000000     0.000092   -0.000020    0.000000    0.000000    0.000000
  24.1 A1                  6868.000000     0.000717   -0.000159    0.000000    0.000000    0.000000
  25.1 A1                  1563.000000     0.003749   -0.000824    0.000000    0.000000    0.000000
  26.1 A1                   442.400000     0.015532   -0.003478    0.000000    0.000000    0.000000
  27.1 A1                   144.300000     0.053146   -0.011966    0.000000    0.000000    0.000000
                             52.180000     0.146787   -0.035388    0.000000    0.000000    0.000000
                             20.340000     0.304663   -0.080077    0.000000    0.000000    0.000000
                              8.381000     0.397684   -0.146722    0.000000    0.000000    0.000000
                              3.529000     0.217641   -0.116360    0.000000    0.000000    0.000000
                              1.054000     0.016963    0.279919    1.000000    0.000000    0.000000
                              0.411800    -0.002745    0.585481    0.000000    1.000000    0.000000
                              0.155200     0.000953    0.284028    0.000000    0.000000    1.000000
  28.1 A1    2  2pz          49.330000     0.005533    0.000000    0.000000    0.000000
  29.1 A1                    11.370000     0.037962    0.000000    0.000000    0.000000
  30.1 A1                     3.435000     0.149028    0.000000    0.000000    0.000000
  31.1 A1                     1.182000     0.348922    1.000000    0.000000    0.000000
                              0.417300     0.458972    0.000000    1.000000    0.000000
                              0.142800     0.244923    0.000000    0.000000    1.000000
  32.1 A1    2  3d0           2.837000     1.000000
  33.1 A1    2  3d2+          2.837000     1.000000
  34.1 A1    2  3d0           0.968000     1.000000
  35.1 A1    2  3d2+          0.968000     1.000000
  36.1 A1    2  3d0           0.335000     1.000000
  37.1 A1    2  3d2+          0.335000     1.000000
  38.1 A1    2  4f0           2.027000     1.000000
  39.1 A1    2  4f2+          2.027000     1.000000
  40.1 A1    2  4f0           0.685000     1.000000
  41.1 A1    2  4f2+          0.685000     1.000000
  42.1 A1    2  5g0           1.427000     1.000000
  43.1 A1    2  5g4+          1.427000     1.000000
  44.1 A1    2  5g2+          1.427000     1.000000
  45.1 A1    3  1s        61420.000000     0.000090   -0.000020    0.000000    0.000000    0.000000
  46.1 A1                  9199.000000     0.000698   -0.000159    0.000000    0.000000    0.000000
  47.1 A1                  2091.000000     0.003664   -0.000829    0.000000    0.000000    0.000000
  48.1 A1                   590.900000     0.015218   -0.003508    0.000000    0.000000    0.000000
  49.1 A1                   192.300000     0.052423   -0.012156    0.000000    0.000000    0.000000
                             69.320000     0.145921   -0.036261    0.000000    0.000000    0.000000
                             26.970000     0.305258   -0.082992    0.000000    0.000000    0.000000
                             11.100000     0.398508   -0.152090    0.000000    0.000000    0.000000
                              4.682000     0.216980   -0.115331    0.000000    0.000000    0.000000
                              1.428000     0.017594    0.288979    1.000000    0.000000    0.000000
                              0.554700    -0.002502    0.586128    0.000000    1.000000    0.000000
                              0.206700     0.000954    0.277624    0.000000    0.000000    1.000000
  50.1 A1    3  2pz          63.420000     0.006044    0.000000    0.000000    0.000000
  51.1 A1                    14.660000     0.041799    0.000000    0.000000    0.000000
  52.1 A1                     4.459000     0.161143    0.000000    0.000000    0.000000
  53.1 A1                     1.531000     0.356731    1.000000    0.000000    0.000000
                              0.530200     0.448309    0.000000    1.000000    0.000000
                              0.175000     0.244940    0.000000    0.000000    1.000000
  54.1 A1    3  3d0           3.775000     1.000000
  55.1 A1    3  3d2+          3.775000     1.000000
  56.1 A1    3  3d0           1.300000     1.000000
  57.1 A1    3  3d2+          1.300000     1.000000
  58.1 A1    3  3d0           0.444000     1.000000
  59.1 A1    3  3d2+          0.444000     1.000000
  60.1 A1    3  4f0           2.666000     1.000000
  61.1 A1    3  4f2+          2.666000     1.000000
  62.1 A1    3  4f0           0.859000     1.000000
  63.1 A1    3  4f2+          0.859000     1.000000
  64.1 A1    3  5g0           1.846000     1.000000
  65.1 A1    3  5g4+          1.846000     1.000000
  66.1 A1    3  5g2+          1.846000     1.000000
   1.2 B1    1  2px          34.510000     0.005378    0.000000    0.000000    0.000000
   2.2 B1                     7.915000     0.036132    0.000000    0.000000    0.000000
   3.2 B1                     2.368000     0.142493    0.000000    0.000000    0.000000
   4.2 B1                     0.813200     0.342150    1.000000    0.000000    0.000000
                              0.289000     0.463864    0.000000    1.000000    0.000000
                              0.100700     0.250028    0.000000    0.000000    1.000000
   5.2 B1    1  3d1+          1.848000     1.000000
   6.2 B1    1  3d1+          0.649000     1.000000
   7.2 B1    1  3d1+          0.228000     1.000000
   8.2 B1    1  4f1+          1.419000     1.000000
   9.2 B1    1  4f3+          1.419000     1.000000
  10.2 B1    1  4f1+          0.485000     1.000000
  11.2 B1    1  4f3+          0.485000     1.000000
  12.2 B1    1  5g1+          1.011000     1.000000
  13.2 B1    1  5g3+          1.011000     1.000000
  14.2 B1    2  2px          49.330000     0.005533    0.000000    0.000000    0.000000
  15.2 B1                    11.370000     0.037962    0.000000    0.000000    0.000000
  16.2 B1                     3.435000     0.149028    0.000000    0.000000    0.000000
  17.2 B1                     1.182000     0.348922    1.000000    0.000000    0.000000
                              0.417300     0.458972    0.000000    1.000000    0.000000
                              0.142800     0.244923    0.000000    0.000000    1.000000
  18.2 B1    2  3d1+          2.837000     1.000000
  19.2 B1    2  3d1+          0.968000     1.000000
  20.2 B1    2  3d1+          0.335000     1.000000
  21.2 B1    2  4f1+          2.027000     1.000000
  22.2 B1    2  4f3+          2.027000     1.000000
  23.2 B1    2  4f1+          0.685000     1.000000
  24.2 B1    2  4f3+          0.685000     1.000000
  25.2 B1    2  5g1+          1.427000     1.000000
  26.2 B1    2  5g3+          1.427000     1.000000
  27.2 B1    3  2px          63.420000     0.006044    0.000000    0.000000    0.000000
  28.2 B1                    14.660000     0.041799    0.000000    0.000000    0.000000
  29.2 B1                     4.459000     0.161143    0.000000    0.000000    0.000000
  30.2 B1                     1.531000     0.356731    1.000000    0.000000    0.000000
                              0.530200     0.448309    0.000000    1.000000    0.000000
                              0.175000     0.244940    0.000000    0.000000    1.000000
  31.2 B1    3  3d1+          3.775000     1.000000
  32.2 B1    3  3d1+          1.300000     1.000000
  33.2 B1    3  3d1+          0.444000     1.000000
  34.2 B1    3  4f1+          2.666000     1.000000
  35.2 B1    3  4f3+          2.666000     1.000000
  36.2 B1    3  4f1+          0.859000     1.000000
  37.2 B1    3  4f3+          0.859000     1.000000
  38.2 B1    3  5g1+          1.846000     1.000000
  39.2 B1    3  5g3+          1.846000     1.000000
   1.3 B2    1  2py          34.510000     0.005378    0.000000    0.000000    0.000000
   2.3 B2                     7.915000     0.036132    0.000000    0.000000    0.000000
   3.3 B2                     2.368000     0.142493    0.000000    0.000000    0.000000
   4.3 B2                     0.813200     0.342150    1.000000    0.000000    0.000000
                              0.289000     0.463864    0.000000    1.000000    0.000000
                              0.100700     0.250028    0.000000    0.000000    1.000000
   5.3 B2    1  3d1-          1.848000     1.000000
   6.3 B2    1  3d1-          0.649000     1.000000
   7.3 B2    1  3d1-          0.228000     1.000000
   8.3 B2    1  4f1-          1.419000     1.000000
   9.3 B2    1  4f3-          1.419000     1.000000
  10.3 B2    1  4f1-          0.485000     1.000000
  11.3 B2    1  4f3-          0.485000     1.000000
  12.3 B2    1  5g1-          1.011000     1.000000
  13.3 B2    1  5g3-          1.011000     1.000000
  14.3 B2    2  2py          49.330000     0.005533    0.000000    0.000000    0.000000
  15.3 B2                    11.370000     0.037962    0.000000    0.000000    0.000000
  16.3 B2                     3.435000     0.149028    0.000000    0.000000    0.000000
  17.3 B2                     1.182000     0.348922    1.000000    0.000000    0.000000
                              0.417300     0.458972    0.000000    1.000000    0.000000
                              0.142800     0.244923    0.000000    0.000000    1.000000
  18.3 B2    2  3d1-          2.837000     1.000000
  19.3 B2    2  3d1-          0.968000     1.000000
  20.3 B2    2  3d1-          0.335000     1.000000
  21.3 B2    2  4f1-          2.027000     1.000000
  22.3 B2    2  4f3-          2.027000     1.000000
  23.3 B2    2  4f1-          0.685000     1.000000
  24.3 B2    2  4f3-          0.685000     1.000000
  25.3 B2    2  5g1-          1.427000     1.000000
  26.3 B2    2  5g3-          1.427000     1.000000
  27.3 B2    3  2py          63.420000     0.006044    0.000000    0.000000    0.000000
  28.3 B2                    14.660000     0.041799    0.000000    0.000000    0.000000
  29.3 B2                     4.459000     0.161143    0.000000    0.000000    0.000000
  30.3 B2                     1.531000     0.356731    1.000000    0.000000    0.000000
                              0.530200     0.448309    0.000000    1.000000    0.000000
                              0.175000     0.244940    0.000000    0.000000    1.000000
  31.3 B2    3  3d1-          3.775000     1.000000
  32.3 B2    3  3d1-          1.300000     1.000000
  33.3 B2    3  3d1-          0.444000     1.000000
  34.3 B2    3  4f1-          2.666000     1.000000
  35.3 B2    3  4f3-          2.666000     1.000000
  36.3 B2    3  4f1-          0.859000     1.000000
  37.3 B2    3  4f3-          0.859000     1.000000
  38.3 B2    3  5g1-          1.846000     1.000000
  39.3 B2    3  5g3-          1.846000     1.000000
   1.4 A2    1  3d2-          1.848000     1.000000
   2.4 A2    1  3d2-          0.649000     1.000000
   3.4 A2    1  3d2-          0.228000     1.000000
   4.4 A2    1  4f2-          1.419000     1.000000
   5.4 A2    1  4f2-          0.485000     1.000000
   6.4 A2    1  5g2-          1.011000     1.000000
   7.4 A2    1  5g4-          1.011000     1.000000
   8.4 A2    2  3d2-          2.837000     1.000000
   9.4 A2    2  3d2-          0.968000     1.000000
  10.4 A2    2  3d2-          0.335000     1.000000
  11.4 A2    2  4f2-          2.027000     1.000000
  12.4 A2    2  4f2-          0.685000     1.000000
  13.4 A2    2  5g2-          1.427000     1.000000
  14.4 A2    2  5g4-          1.427000     1.000000
  15.4 A2    3  3d2-          3.775000     1.000000
  16.4 A2    3  3d2-          1.300000     1.000000
  17.4 A2    3  3d2-          0.444000     1.000000
  18.4 A2    3  4f2-          2.666000     1.000000
  19.4 A2    3  4f2-          0.859000     1.000000
  20.4 A2    3  5g2-          1.846000     1.000000
  21.4 A2    3  5g4-          1.846000     1.000000

 NUCLEAR CHARGE:                   21
 NUMBER OF PRIMITIVE AOS:         249
 NUMBER OF SYMMETRY AOS:          204
 NUMBER OF CONTRACTIONS:          165   (  66A1  +  39B1  +  39B2  +  21A2  )
 NUMBER OF CORE ORBITALS:           3   (   3A1  +   0B1  +   0B2  +   0A2  )
 NUMBER OF VALENCE ORBITALS:       12   (   6A1  +   3B1  +   3B2  +   0A2  )


 NUCLEAR REPULSION ENERGY   52.07823748

 EXTRA SYMMETRY OF AOS IN SYMMETRY 1:   1 1 1 1 1 1 1 1 1 1   2 1 2 1 2 1 2 1 2 1   3 2 1 1 1 1 1 1 1 1   1 1 2 1 2 1 2 1 2 1
                                        2 1 3 2 1 1 1 1 1 1   1 1 1 1 2 1 2 1 2 1   2 1 2 1 3 2
 EXTRA SYMMETRY OF AOS IN SYMMETRY 2:   1 1 1 1 1 1 1 1 2 1   2 1 2 1 1 1 1 1 1 1   1 2 1 2 1 2 1 1 1 1   1 1 1 1 2 1 2 1 2
 EXTRA SYMMETRY OF AOS IN SYMMETRY 3:   1 1 1 1 1 1 1 1 2 1   2 1 2 1 1 1 1 1 1 1   1 2 1 2 1 2 1 1 1 1   1 1 1 1 2 1 2 1 2
 EXTRA SYMMETRY OF AOS IN SYMMETRY 4:   1 1 1 1 1 1 2 1 1 1   1 1 1 2 1 1 1 1 1 1   2

 Eigenvalues of metric

         1 0.219E-03 0.295E-03 0.446E-03 0.607E-03 0.687E-03 0.189E-02 0.247E-02 0.435E-02
         2 0.303E-02 0.443E-02 0.927E-02 0.943E-02 0.112E-01 0.249E-01 0.436E-01 0.122E+00
         3 0.303E-02 0.443E-02 0.927E-02 0.943E-02 0.112E-01 0.249E-01 0.436E-01 0.122E+00
         4 0.877E-01 0.113E+00 0.144E+00 0.221E+00 0.238E+00 0.443E+00 0.535E+00 0.607E+00


 Contracted 2-electron integrals neglected if value below      1.0D-11
 AO integral compression algorithm  1   Integral accuracy      1.0D-11

     92.013 MB (compressed) written to integral file ( 40.0%)

     Node minimum: 92.013 MB, node maximum: 92.013 MB


 NUMBER OF SORTED TWO-ELECTRON INTEGRALS:   24191643.     BUFFER LENGTH:  32768
 NUMBER OF SEGMENTS:   2  SEGMENT LENGTH:   15997665      RECORD LENGTH: 524288

 Memory used in sort:      16.55 MW

 SORT1 READ    28804811. AND WROTE    17765605. INTEGRALS IN     52 RECORDS. CPU TIME:     0.45 SEC, REAL TIME:     0.55 SEC
 SORT2 READ    17765605. AND WROTE    24191643. INTEGRALS IN    351 RECORDS. CPU TIME:     0.32 SEC, REAL TIME:     0.41 SEC

 FILE SIZES:   FILE 1:    81.8 MBYTE,  FILE 4:   218.1 MBYTE,   TOTAL:    300.0 MBYTE

 OPERATOR DM      FOR CENTER  0  COORDINATES:    0.000000    0.000000    0.000000


 **********************************************************************************************************************************
 DATASETS  * FILE   NREC   LENGTH (MB)   RECORD NAMES
              1      19       81.91       500      610      700      900      950      970     1000      129      960     1100   
                                          VAR    BASINP    GEOM    SYMINP    ZMAT    AOBASIS   BASIS     P2S    ABASIS      S 
                                         1400     1410     1200     1210     1080     1600     1650     1300     1700   
                                           T        V       H0       H01     AOSYM     SMH    MOLCAS    ERIS     OPER   

 PROGRAMS   *        TOTAL       INT
 CPU TIMES  *         4.18      4.15
 REAL TIME  *         4.46 SEC
 DISK USED  *       392.51 MB      
 GA USED    *         0.00 MB       (max)       0.00 MB       (current)
 **********************************************************************************************************************************

1PROGRAM * RHF-SCF (OPEN SHELL)       Authors: W. Meyer, H.-J. Werner


 NUMBER OF ELECTRONS:      11+   10-    SPACE SYMMETRY=3    SPIN SYMMETRY=Doublet 
 CONVERGENCE THRESHOLDS:    1.00E-06 (Density)    1.00E-07 (Energy)
 MAX. NUMBER OF ITERATIONS:       60
 INTERPOLATION TYPE:            DIIS
 INTERPOLATION STEPS:              2 (START)      1 (STEP)
 LEVEL SHIFTS:                 -0.30 (CLOSED)  0.00 (OPEN) 


 Singly occupied orbitals:      2.3
 Orbital guess generated from atomic densities. Full valence occupancy:    9   3   3   0

 Molecular orbital dump at record        2100.2

 ITERATION    DDIFF          GRAD             ENERGY        2-EL.EN.            DIPOLE MOMENTS         DIIS
    1      0.000D+00      0.000D+00      -167.14319360    221.434045    0.00000    0.00000   -0.10121    0
    2      0.000D+00      0.695D-02      -167.18064299    222.226111    0.00000    0.00000   -0.23182    1
    3      0.846D-02      0.275D-02      -167.18822387    222.613432    0.00000    0.00000   -0.06305    2
    4      0.326D-02      0.953D-03      -167.19018167    222.507813    0.00000    0.00000   -0.11776    3
    5      0.110D-02      0.417D-03      -167.19101629    222.534570    0.00000    0.00000   -0.09640    4
    6      0.737D-03      0.230D-03      -167.19131249    222.529601    0.00000    0.00000   -0.11416    5
    7      0.518D-03      0.111D-03      -167.19137843    222.525524    0.00000    0.00000   -0.11487    6
    8      0.298D-03      0.421D-04      -167.19139268    222.527592    0.00000    0.00000   -0.11291    7
    9      0.157D-03      0.171D-04      -167.19139489    222.527454    0.00000    0.00000   -0.11277    8
   10      0.666D-04      0.743D-05      -167.19139516    222.527982    0.00000    0.00000   -0.11189    9
   11      0.247D-04      0.266D-05      -167.19139520    222.528015    0.00000    0.00000   -0.11181    9
   12      0.122D-04      0.120D-05      -167.19139521    222.528043    0.00000    0.00000   -0.11176    9
   13      0.344D-05      0.392D-06      -167.19139521    222.528050    0.00000    0.00000   -0.11178    9
   14      0.188D-05      0.128D-06      -167.19139521    222.528047    0.00000    0.00000   -0.11178    9
   15      0.489D-06      0.510D-07      -167.19139521    222.528050    0.00000    0.00000   -0.11178    0

 Final alpha occupancy:   7   2   2   0
 Final beta  occupancy:   7   2   1   0

 !RHF STATE 1.3 Energy               -167.191395206855
 Nuclear energy                        52.07823748
 One-electron energy                 -330.53365764
 Two-electron energy                  111.26402496
 Virial quotient                       -1.00139925
 !RHF STATE 1.3 Dipole moment           0.00000000     0.00000000    -0.11177717
 Dipole moment /Debye                   0.00000000     0.00000000    -0.28409061

 ELECTRON ORBITALS
 =================


   Orb  Occ    Energy  Couls-En    Coefficients

                                   1 1s      1 1s      1 1s      1 1s      1 1s      1 2pz     1 2pz     1 2pz     1 2pz     1 3d0  
                                   1 3d2+    1 3d0     1 3d2+    1 3d0     1 3d2+    1 4f0     1 4f2+    1 4f0     1 4f2+    1 5g0  
                                   1 5g4+    1 5g2+    2 1s      2 1s      2 1s      2 1s      2 1s      2 2pz     2 2pz     2 2pz  
                                   2 2pz     2 3d0     2 3d2+    2 3d0     2 3d2+    2 3d0     2 3d2+    2 4f0     2 4f2+    2 4f0  
                                   2 4f2+    2 5g0     2 5g4+    2 5g2+    3 1s      3 1s      3 1s      3 1s      3 1s      3 2pz  
                                   3 2pz     3 2pz     3 2pz     3 3d0     3 3d2+    3 3d0     3 3d2+    3 3d0     3 3d2+    3 4f0  
                                   3 4f2+    3 4f0     3 4f2+    3 5g0     3 5g4+    3 5g2+ 

   1.1   2   -20.6653  -56.8337  0.000089  0.000440 -0.000652  0.001788  0.000324 -0.000127 -0.000113 -0.000726  0.000788 -0.000106
                                -0.000001  0.000813 -0.000011  0.000845  0.000000  0.000012  0.000003 -0.000273  0.000000  0.000113
                                 0.000000 -0.000006 -0.000034 -0.000118  0.000152 -0.000643 -0.000962 -0.000098  0.000135  0.000511
                                 0.000041  0.000012 -0.000001 -0.000175  0.000002  0.000023 -0.000002  0.000029  0.000000  0.000005
                                -0.000001  0.000002  0.000000  0.000001  1.000412  0.001935  0.000342 -0.003383 -0.000070  0.009298
                                -0.003761 -0.004683 -0.002149  0.000131 -0.000010 -0.000155  0.000100  0.000063 -0.000005  0.000032
                                 0.000000  0.000036 -0.000002  0.000023  0.000000  0.000000

   2.1   2   -15.6450  -44.4264  0.000143  0.000383 -0.000972  0.002556 -0.000636  0.000204  0.000104  0.000752 -0.001000 -0.000189
                                 0.000007  0.001146  0.000003  0.001147  0.000014  0.000037  0.000004  0.000137 -0.000002  0.000270
                                 0.000000 -0.000005  1.000288  0.001711  0.000487 -0.004266  0.001384 -0.012909  0.005226  0.006571
                                 0.002559  0.000125 -0.000079 -0.000110  0.000235  0.000186  0.000002 -0.000018 -0.000005 -0.000094
                                -0.000026  0.000035  0.000000  0.000010 -0.000050 -0.000208  0.000128 -0.000814 -0.000960  0.000157
                                -0.000256 -0.000640  0.000137  0.000019 -0.000001 -0.000211  0.000003  0.000070 -0.000008 -0.000030
                                 0.000000  0.000007 -0.000001  0.000000  0.000000  0.000001

   3.1   2   -11.4325  -35.9877  1.000254  0.004478  0.000509  0.002210 -0.002510 -0.002405  0.001295  0.000824  0.000550  0.000013
                                -0.000047  0.003128  0.000055 -0.000417 -0.000007  0.000026  0.000011 -0.000199  0.000034  0.000539
                                 0.000000  0.000003 -0.000515  0.000182  0.000279 -0.001527 -0.000141 -0.001131  0.000589  0.001955
                                 0.000385  0.000058  0.000005 -0.000475  0.000019 -0.000654  0.000014 -0.000036 -0.000005  0.000235
                                -0.000008  0.000076  0.000000  0.000005 -0.000252  0.000825  0.000118 -0.001988 -0.000343  0.001136
                                -0.000363 -0.001641 -0.000339  0.000040 -0.000001 -0.000098 -0.000011 -0.000417 -0.000008  0.000071
                                -0.000002  0.000018 -0.000010  0.000116  0.000000 -0.000005

   4.1   2    -1.5020  -13.2721 -0.008973  0.484431 -0.000489 -0.108264 -0.113795 -0.283257  0.001221  0.096788  0.073881  0.010655
                                -0.000069  0.025813 -0.000999  0.017363 -0.000841 -0.004692  0.000117  0.000005  0.000578  0.002624
                                 0.000002 -0.000037 -0.001005  0.080040 -0.001088 -0.022495 -0.025330 -0.036320  0.002025  0.009973
                                 0.008655  0.000444  0.000077  0.001700  0.000049  0.002803  0.000445 -0.000038  0.000012 -0.001754
                                 0.000013  0.000074  0.000000 -0.000005 -0.004158  0.817240 -0.007108 -0.030011 -0.056628  0.206720
                                 0.001806 -0.002363 -0.035001  0.002542  0.000150  0.012857 -0.000067  0.016632  0.000307  0.001307
                                -0.000068  0.004544 -0.000211  0.000744  0.000000 -0.000030

   5.1   2    -1.2579  -11.9970 -0.005008  0.464468  0.001448 -0.093197 -0.121298  0.451502 -0.004657 -0.116071 -0.114077  0.006934
                                 0.000272  0.016247  0.000353  0.007386  0.001200  0.004552 -0.000070  0.005439  0.000376  0.000721
                                -0.000002 -0.000122 -0.004968  0.756359 -0.006250 -0.053610 -0.068899 -0.267779 -0.000861  0.015309
                                 0.043688  0.004418  0.000510  0.019614  0.000008  0.021100  0.002575 -0.001880  0.000184 -0.006125
                                 0.000052  0.001061 -0.000001 -0.000089  0.000274 -0.193786 -0.000033  0.004917  0.000409 -0.014856
                                -0.000735 -0.000408  0.004303 -0.000405 -0.000082 -0.001699  0.000022 -0.001752 -0.000689 -0.000384
                                 0.000004 -0.000108 -0.000017 -0.000381  0.000001  0.000016

   6.1   2    -0.7807  -11.1100  0.000827  0.468079  0.005344 -0.062045 -0.140262 -0.349860  0.002437  0.081886  0.104598  0.006413
                                -0.000071  0.008792 -0.000784 -0.011315 -0.000820 -0.004258  0.000079 -0.003161  0.000060  0.001582
                                 0.000002  0.000004 -0.000845 -0.208733 -0.003002  0.012835 -0.011963 -0.068753  0.001841 -0.000773
                                -0.000853  0.000021 -0.000058  0.001860  0.000279  0.002361  0.000273  0.000067  0.000035 -0.000984
                                 0.000058 -0.000071 -0.000002 -0.000004 -0.002454 -0.451726 -0.002426 -0.031070 -0.079391  0.733804
                                -0.003452 -0.019006 -0.043823  0.004211 -0.000128  0.017355 -0.000168  0.024085 -0.000769  0.001648
                                -0.000227  0.005259 -0.000532  0.001045  0.000001 -0.000030

   7.1   2    -0.6336   -9.6049 -0.001312 -0.308634 -0.005266  0.042837  0.123255 -0.431565  0.004419  0.091674  0.142026 -0.001696
                                -0.000011  0.000300  0.000708  0.019323  0.001426 -0.003602  0.000167 -0.005538  0.000811  0.000345
                                -0.000003  0.000246  0.002557  0.530070  0.001761  0.034154  0.045291  0.705696 -0.008254 -0.028448
                                -0.015737 -0.005154  0.000160 -0.021745 -0.000668 -0.028512 -0.000721  0.001664 -0.000491  0.005096
                                -0.001196 -0.001276  0.000004  0.000205  0.000229 -0.023643  0.002149 -0.022001 -0.033742  0.208696
                                -0.000698 -0.010400 -0.018162  0.001339 -0.000011  0.004362  0.000009  0.005712  0.000035  0.000617
                                -0.000070  0.001274 -0.000079  0.000594  0.000000 -0.000019

                                   1 2px     1 2px     1 2px     1 2px     1 3d1+    1 3d1+    1 3d1+    1 4f1+    1 4f3+    1 4f1+ 
                                   1 4f3+    1 5g1+    1 5g3+    2 2px     2 2px     2 2px     2 2px     2 3d1+    2 3d1+    2 3d1+ 
                                   2 4f1+    2 4f3+    2 4f1+    2 4f3+    2 5g1+    2 5g3+    3 2px     3 2px     3 2px     3 2px  
                                   3 3d1+    3 3d1+    3 3d1+    3 4f1+    3 4f3+    3 4f1+    3 4f3+    3 5g1+    3 5g3+ 

   1.2   2    -0.6858  -10.6921  0.517811  0.000840 -0.046133 -0.086362 -0.003563 -0.014654 -0.010960  0.006858 -0.000121  0.007851
                                -0.001247 -0.002314 -0.000137  0.300408 -0.002598 -0.000438 -0.014021 -0.002384 -0.015939 -0.017579
                                 0.001661 -0.000228  0.006266 -0.000853 -0.001378  0.000144  0.693907 -0.002833  0.000563 -0.019284
                                 0.002948  0.016657  0.022055  0.001669 -0.000234  0.006137 -0.000614  0.001104 -0.000029

   2.2   2    -0.4762   -9.7596  0.242440 -0.001502  0.001218 -0.019691  0.013095  0.049380  0.045052  0.001133 -0.000007  0.004844
                                -0.000553  0.004048 -0.000278  0.710910 -0.006278 -0.009329  0.029471 -0.004099 -0.017309 -0.027657
                                 0.001421 -0.000519  0.004917 -0.002284 -0.001003  0.000270 -0.534033  0.002501 -0.005087 -0.040917
                                -0.001130 -0.003360 -0.013088 -0.000285  0.000177 -0.001781  0.000435 -0.000275 -0.000023

                                   1 2py     1 2py     1 2py     1 2py     1 3d1-    1 3d1-    1 3d1-    1 4f1-    1 4f3-    1 4f1- 
                                   1 4f3-    1 5g1-    1 5g3-    2 2py     2 2py     2 2py     2 2py     2 3d1-    2 3d1-    2 3d1- 
                                   2 4f1-    2 4f3-    2 4f1-    2 4f3-    2 5g1-    2 5g3-    3 2py     3 2py     3 2py     3 2py  
                                   3 3d1-    3 3d1-    3 3d1-    3 4f1-    3 4f3-    3 4f1-    3 4f3-    3 5g1-    3 5g3- 

   1.3   2    -0.6485  -10.7461  0.495913  0.000620 -0.036990 -0.071960 -0.007020 -0.028054 -0.026830  0.006192 -0.000126  0.006626
                                -0.001207 -0.003265 -0.000083  0.112454 -0.001032  0.002425 -0.019719 -0.001383 -0.011437 -0.010427
                                 0.001267 -0.000088  0.004884 -0.000278 -0.001096  0.000079  0.747038 -0.002654  0.005133 -0.007508
                                 0.003366  0.018152  0.026797  0.001623 -0.000250  0.006404 -0.000685  0.001164 -0.000030

   2.3   +    -0.5507   -9.6801  0.269880 -0.001361 -0.012732 -0.048578  0.011694  0.045299  0.045410  0.002578 -0.000035  0.007569
                                -0.001452  0.003731 -0.000553  0.821602 -0.003830 -0.002284  0.003055 -0.004368 -0.020702 -0.031267
                                 0.000502 -0.001502  0.003079 -0.005657 -0.000770  0.000632 -0.333426  0.001230 -0.004818 -0.028153
                                -0.000632 -0.000954 -0.007371  0.000060  0.000150 -0.000025  0.000448  0.000007 -0.000025


 **********************************************************************************************************************************
 DATASETS  * FILE   NREC   LENGTH (MB)   RECORD NAMES
              1      19       81.91       500      610      700      900      950      970     1000      129      960     1100   
                                          VAR    BASINP    GEOM    SYMINP    ZMAT    AOBASIS   BASIS     P2S    ABASIS      S 
                                         1400     1410     1200     1210     1080     1600     1650     1300     1700   
                                           T        V       H0       H01     AOSYM     SMH    MOLCAS    ERIS     OPER   

              2       3        0.53       700     1000     2100   
                                         GEOM     BASIS     RHF  

 PROGRAMS   *        TOTAL        HF       INT
 CPU TIMES  *         5.40      1.22      4.15
 REAL TIME  *         5.77 SEC
 DISK USED  *       392.51 MB      
 GA USED    *         0.00 MB       (max)       0.00 MB       (current)
 **********************************************************************************************************************************


1PROGRAM * CCSD (Restricted open-shell coupled cluster)     Authors: C. Hampel, H.-J. Werner, 1991, M. Deegan, P.J. Knowles, 1992


 Convergence thresholds:  THRVAR = 1.00D-12  THRDEN = 1.00D-08

 CCSD(T)     terms to be evaluated (factor= 1.000)


 Number of core orbitals:           3 (   3   0   0   0 )
 Number of closed-shell orbitals:   7 (   4   2   1   0 )
 Number of active  orbitals:        1 (   0   0   1   0 )
 Number of external orbitals:     154 (  59  37  37  21 )

 Memory could be reduced to 15.66 Mwords without degradation in triples

 Number of N-1 electron functions:              15
 Number of N-2 electron functions:             105
 Number of singly external CSFs:               734
 Number of doubly external CSFs:            499374
 Total number of CSFs:                      500108

 Molecular orbitals read from record     2100.2  Type=RHF/CANONICAL (state 1.3)

 Integral transformation finished. Total CPU:   0.43 sec, npass=  1  Memory used:   1.52 MW

 Starting RMP2 calculation

 Wavefunction is spin-projected

 ITER.      SQ.NORM     CORR.ENERGY   TOTAL ENERGY   ENERGY CHANGE        DEN1      VAR(S)    VAR(P)  DIIS     TIME
   1      1.15940138    -0.57392051  -167.76531572    -0.57392051    -0.00220261  0.26D-04  0.92D-03  1  1     0.52
   2      1.16174705    -0.57632361  -167.76771882    -0.00240310    -0.00000850  0.79D-06  0.40D-05  2  2     0.55
   3      1.16186803    -0.57639371  -167.76778891    -0.00007010    -0.00000004  0.18D-07  0.14D-07  3  3     0.58
   4      1.16187018    -0.57639405  -167.76778926    -0.00000034     0.00000000  0.35D-09  0.59D-10  4  4     0.61
   5      1.16187027    -0.57639410  -167.76778930    -0.00000005     0.00000000  0.47D-11  0.53D-12  5  5     0.65
   6      1.16187027    -0.57639410  -167.76778931     0.00000000     0.00000000  0.21D-13  0.98D-14  6  6     0.68

 Norm of t1 vector:      0.03936093      S-energy:    -0.00298481      T1 diagnostic:  0.00076508
 Norm of t2 vector:      0.40040104      P-energy:    -0.57340929
                                         Alpha-Beta:  -0.42728069
                                         Alpha-Alpha: -0.08232797
                                         Beta-Beta:   -0.06380063

 Spin contamination <S**2-Sz**2-Sz>     0.00000000
  Reference energy                   -167.191395206855
  RHF-RMP2 correlation energy          -0.576394099135
 !RHF-RMP2 energy                    -167.767789305990
 (NB above energy spin projected)

 Starting RCCSD calculation

 ITER.      SQ.NORM     CORR.ENERGY   TOTAL ENERGY   ENERGY CHANGE        DEN1      VAR(S)    VAR(P)  DIIS     TIME
   1      1.15159879    -0.55556147  -167.74695667    -0.55556147    -0.01744243  0.62D-02  0.24D-02  1  1     2.09
   2      1.16648091    -0.56992087  -167.76131608    -0.01435941    -0.00225016  0.48D-03  0.66D-03  2  2     3.48
   3      1.17715239    -0.57318845  -167.76458365    -0.00326757    -0.00050111  0.42D-03  0.55D-04  3  3     4.88
   4      1.18427995    -0.57484957  -167.76624477    -0.00166112    -0.00016157  0.12D-03  0.25D-04  4  4     6.28
   5      1.19118302    -0.57575313  -167.76714834    -0.00090356    -0.00004859  0.44D-04  0.52D-05  5  5     7.67
   6      1.19590230    -0.57615311  -167.76754832    -0.00039998    -0.00000843  0.45D-05  0.18D-05  6  6     9.09
   7      1.19790123    -0.57633303  -167.76772824    -0.00017992    -0.00000147  0.87D-06  0.26D-06  6  2    10.49
   8      1.19838905    -0.57635660  -167.76775181    -0.00002357    -0.00000016  0.49D-07  0.47D-07  6  1    11.88
   9      1.19842331    -0.57635781  -167.76775301    -0.00000121    -0.00000002  0.95D-08  0.58D-08  6  3    13.29
  10      1.19843393    -0.57635728  -167.76775248     0.00000053     0.00000000  0.11D-08  0.10D-08  6  5    14.69
  11      1.19843978    -0.57635709  -167.76775229     0.00000019     0.00000000  0.17D-09  0.13D-09  6  4    16.09
  12      1.19844127    -0.57635695  -167.76775215     0.00000014     0.00000000  0.28D-10  0.22D-10  6  6    17.49
  13      1.19844086    -0.57635686  -167.76775207     0.00000008     0.00000000  0.97D-11  0.30D-11  6  2    18.90
  14      1.19843994    -0.57635672  -167.76775193     0.00000014     0.00000000  0.39D-11  0.93D-12  6  1    20.31
  15      1.19843882    -0.57635660  -167.76775181     0.00000012     0.00000000  0.18D-11  0.19D-12  6  3    21.73
  16      1.19843785    -0.57635650  -167.76775171     0.00000010     0.00000000  0.22D-12  0.11D-12  6  5    23.14
  17      1.19843750    -0.57635647  -167.76775168     0.00000003     0.00000000  0.73D-13  0.18D-13  6  4    24.56
  18      1.19843731    -0.57635646  -167.76775166     0.00000002     0.00000000  0.83D-14  0.54D-14  6  6    25.96
  19      1.19843728    -0.57635646  -167.76775166     0.00000000     0.00000000  0.25D-14  0.44D-15  6  4    27.37

 Norm of t1 vector:      0.17555227      S-energy:    -0.00395537      T1 diagnostic:  0.03018178
                                                                       D1 diagnostic:  0.09691487
 Norm of t2 vector:      0.40941261      P-energy:    -0.57240109
                                         Alpha-Beta:  -0.44444856
                                         Alpha-Alpha: -0.07195521
                                         Beta-Beta:   -0.05599732

 Singles amplitudes (print threshold =  0.500E-01):

         I         SYM. A    A   T(IA) [Beta-Beta]

         7         3         1      0.13705833
         7         3         2      0.05164627

 Doubles amplitudes (print threshold =  0.500E-01):

         I         J         SYM. A    SYM. B    A         B      T(IJ, AB) [Alpha-Beta]

         6         6         2         2         1         1     -0.07216271
         7         7         3         3         2         2     -0.05694015
         8         7         3         3         2         1      0.06140217

 Spin contamination <S**2-Sz**2-Sz>     0.00000000

 Memory could be reduced to 16.60 Mwords without degradation in triples
 

 RESULTS
 =======

  Reference energy                   -167.191395206855
  RCCSD singles energy                 -0.003955366327
  RCCSD pair energy                    -0.572401090142
  RCCSD correlation energy             -0.576356456469
  Triples (T) contribution             -0.030420222727
  Total correlation energy             -0.606776679197
 
  RHF-RCCSD energy                   -167.767751663325
  RHF-RCCSD[T] energy                -167.800733769837
  RHF-RCCSD-T energy                 -167.797458798325
 !RHF-RCCSD(T) energy                -167.798171886052

 Program statistics:

 Available memory in ccsd:               999999308
 Min. memory needed in ccsd:               1564014
 Max. memory used in ccsd:                 2158768
 Max. memory used in cckext:               1848568 (19 integral passes)
 Max. memory used in cckint:               1515013 ( 1 integral passes)



 **********************************************************************************************************************************
 DATASETS  * FILE   NREC   LENGTH (MB)   RECORD NAMES
              1      19       81.91       500      610      700      900      950      970     1000      129      960     1100   
                                          VAR    BASINP    GEOM    SYMINP    ZMAT    AOBASIS   BASIS     P2S    ABASIS      S 
                                         1400     1410     1200     1210     1080     1600     1650     1300     1700   
                                           T        V       H0       H01     AOSYM     SMH    MOLCAS    ERIS     OPER   

              2       3        0.53       700     1000     2100   
                                         GEOM     BASIS     RHF  

 PROGRAMS   *        TOTAL  RCCSD(T)        HF       INT
 CPU TIMES  *        57.95     52.55      1.22      4.15
 REAL TIME  *        60.44 SEC
 DISK USED  *       439.92 MB      
 GA USED    *         0.00 MB       (max)       0.00 MB       (current)
 **********************************************************************************************************************************


 PROGRAM * OPT (Geometry optimization)     Authors: F. Eckert and H.-J. Werner


 BFGS update of hessian

 *** Long output written to logfile /home/yuant/hxk/OPT/NCO-opt-ccsdt-qz.log ***


 Geometry optimization using default procedure for command RCCSD(T)

 Geometry written to block  1 of record 701

 Generated   2 symmetrical displacements

 Number of displacements for numerical gradient:      4

 Starting numerical gradient for RCCSD(T)
 Numerical gradient completed. CPU-time:   238.16 sec, Elapsed:   249.94 sec

 Making model hessian for cartesian coordinates

 Quadratic Steepest Descent - Minimum Search

 Optimization point  1

 Variable                      Last           Current        Next           Gradient       Hessian
 E(RCCSD(T)) / Hartree       0.00000000  -167.79817189     0.00000000
 CX1 / BOHR                  0.00000000     0.00000000     0.00000000     0.00000000     0.00000000
 CY1 / BOHR                  0.00000000     0.00000000     0.00000000     0.00000000     0.00000000
 CZ1 / BOHR                  0.00000000     0.07302430     0.07110296     0.00556627     0.00000000
 NX2 / BOHR                  0.00000000     0.00000000     0.00000000     0.00000000     0.00000000
 NY2 / BOHR                  0.00000000     0.00000000     0.00000000     0.00000000     0.00000000
 NZ2 / BOHR                  0.00000000     2.39052774     2.39604962    -0.00760201     0.65677663
 OX3 / BOHR                  0.00000000     0.00000000     0.00000000     0.00000000     0.65677663
 OY3 / BOHR                  0.00000000     0.00000000     0.00000000     0.00000000     1.09191141
 OZ3 / BOHR                  0.00000000    -2.14761177    -2.15121231     0.00203575     3.21539320
 Convergence:                0.00000000  (line search)     0.00686634     0.00963941  (total)

 Number of displacements for numerical gradient:      4

 Starting numerical gradient for RCCSD(T)
 Numerical gradient completed. CPU-time:   237.40 sec, Elapsed:   248.08 sec

 Optimization point  2

 Variable                      Last           Current        Next           Gradient       Hessian
 E(RCCSD(T)) / Hartree    -167.79817189  -167.79820898     0.00000000
 CX1 / BOHR                  0.00000000     0.00000000     0.00000000     0.00000000     0.00000000
 CY1 / BOHR                  0.00000000     0.00000000     0.00000000     0.00000000     0.00000000
 CZ1 / BOHR                  0.07302430     0.07110296     0.06995844     0.00254940     0.00000000
 NX2 / BOHR                  0.00000000     0.00000000     0.00000000     0.00000000     0.00000000
 NY2 / BOHR                  0.00000000     0.00000000     0.00000000     0.00000000     0.00000000
 NZ2 / BOHR                  2.39052774     2.39604962     2.39779798    -0.00207358     0.64657481
 OX3 / BOHR                  0.00000000     0.00000000     0.00000000     0.00000000     0.64657481
 OY3 / BOHR                  0.00000000     0.00000000     0.00000000     0.00000000     1.08451099
 OZ3 / BOHR                 -2.14761177    -2.15121231    -2.15181615    -0.00047582     3.19807127
 Convergence:                0.00000000  (line search)     0.00217515     0.00332047  (total)

 Number of displacements for numerical gradient:      4

 Starting numerical gradient for RCCSD(T)
 Numerical gradient completed. CPU-time:   237.24 sec, Elapsed:   243.27 sec

 Optimization point  3

 Variable                      Last           Current        Next           Gradient       Hessian
 E(RCCSD(T)) / Hartree    -167.79820898  -167.79821245     0.00000000
 CX1 / BOHR                  0.00000000     0.00000000     0.00000000     0.00000000     0.00000000
 CY1 / BOHR                  0.00000000     0.00000000     0.00000000     0.00000000     0.00000000
 CZ1 / BOHR                  0.07110296     0.06995844     0.06973727     0.00052229     0.00000000
 NX2 / BOHR                  0.00000000     0.00000000     0.00000000     0.00000000     0.00000000
 NY2 / BOHR                  0.00000000     0.00000000     0.00000000     0.00000000     0.00000000
 NZ2 / BOHR                  2.39604962     2.39779798     2.39785991    -0.00012726     0.64396104
 OX3 / BOHR                  0.00000000     0.00000000     0.00000000     0.00000000     0.64396104
 OY3 / BOHR                  0.00000000     0.00000000     0.00000000     0.00000000     1.08239663
 OZ3 / BOHR                 -2.15121231    -2.15181615    -2.15165691    -0.00039503     3.19406508
 Convergence:                0.00000000  (line search)     0.00027948     0.00066710  (total)

 Number of displacements for numerical gradient:      4

 Starting numerical gradient for RCCSD(T)
 Numerical gradient completed. CPU-time:   237.99 sec, Elapsed:   245.20 sec

 Optimization point  4

 Variable                      Last           Current        Next           Gradient       Hessian
 E(RCCSD(T)) / Hartree    -167.79821245  -167.79821260     0.00000000
 CX1 / BOHR                  0.00000000     0.00000000     0.00000000     0.00000000     0.00000000
 CY1 / BOHR                  0.00000000     0.00000000     0.00000000     0.00000000     0.00000000
 CZ1 / BOHR                  0.06995844     0.06973727     0.06970067     0.00008020     0.00000000
 NX2 / BOHR                  0.00000000     0.00000000     0.00000000     0.00000000     0.00000000
 NY2 / BOHR                  0.00000000     0.00000000     0.00000000     0.00000000     0.00000000
 NZ2 / BOHR                  2.39779798     2.39785991     2.39782608     0.00001754     0.64406598
 OX3 / BOHR                  0.00000000     0.00000000     0.00000000     0.00000000     0.64406598
 OY3 / BOHR                  0.00000000     0.00000000     0.00000000     0.00000000     1.08239750
 OZ3 / BOHR                 -2.15181615    -2.15165691    -2.15158649    -0.00009774     3.19441349
 Convergence:                0.00000000  (line search)     0.00008627     0.00012764  (total)

 END OF GEOMETRY OPTIMIZATION.    TOTAL CPU:      1158.1 SEC

 ITER.   ENERGY(OLD)    ENERGY(NEW)      DE          GRADMAX     GRADNORM    GRADRMS     STEPMAX     STEPLEN     STEPRMS
   1  -167.79817189  -167.79820898    -0.00003710  0.00717125  0.00963941  0.00240985  0.00656761  0.00686634  0.00396428
   2  -167.79820898  -167.79821245    -0.00000347  0.00305293  0.00332047  0.00083012  0.00174040  0.00217515  0.00125582
   3  -167.79821245  -167.79821260    -0.00000014  0.00064971  0.00066710  0.00016678  0.00027446  0.00027948  0.00016136
   4  -167.79821260  -167.79821261    -0.00000002  0.00010288  0.00012764  0.00003191  0.00007093  0.00008627  0.00004981

 Geometry written to block  1 of record 701


 **********************************************************************************************************************************
 DATASETS  * FILE   NREC   LENGTH (MB)   RECORD NAMES
              1      19       81.85       500      610      701      900      950      970     1000      129      960     1100   
                                          VAR    BASINP    GEOM    SYMINP    ZMAT    AOBASIS   BASIS     P2S    ABASIS      S 
                                         1400     1410     1200     1210     1080     1600     1650     1300     1700   
                                           T        V       H0       H01     AOSYM     SMH    MOLCAS    ERIS     OPER   

              2       5        0.84       700     1000     2100      701     5600   
                                         GEOM     BASIS     RHF     GEOM     GINFO   

 PROGRAMS   *        TOTAL      OPTG  RCCSD(T)        HF       INT
 CPU TIMES  *      1216.10   1158.14     52.55      1.22      4.15
 REAL TIME  *      1326.94 SEC
 DISK USED  *       440.88 MB      
 GA USED    *         0.00 MB       (max)       0.00 MB       (current)
 **********************************************************************************************************************************

  OPTG(RCCSD(T))        RCCSD(T)        HF-SCF  
   -167.79821261   -167.79817189   -167.19139521
 **********************************************************************************************************************************
 Variable memory released
