
 Primary working directories    : /tmp/yuant
 Secondary working directories  : /tmp/yuant
 Wavefunction directory         : /home/yuant/wfu/
 Main file repository           : /tmp/yuant/

 ARCHNAME  : Linux/x86_64
 FC        : /opt/intel/compilerpro-12.0.1.107/bin/intel64/ifort
 FCVERSION : 12.0.0
 BLASLIB   : 
 id        : scu

 Nodes     nprocs
 linux-en55    1
 ga_uses_ma=false, calling ma_init with nominal heap.
 GA-space will be limited to   8.0 MW (determined by -G option)

 Using customized tuning parameters: mindgm=4; mindgv=4; mindgc=1; mindgr=1; noblas=0; mincuda=1000; minvec=7
 default implementation of scratch files=df  

 MEMORY,1000,M
 print, basis, orbitals
 angstrom
 geometry={
 q1
 q2,q1,rqq
 C,q1,rcq1,q2,acq2
 N,q1,rnq1,q2,anq2,C,dnc
 O,q1,roq1,q2,aoq2,C,doc
 Ar,q1,rarq,O,aaro,q2,darq
 }
 rqq=1.0
 rcq1=0.036898
 rnq1=1.268889
 roq1=1.138557
 acq2=90
 anq2=90
 aoq2=90
 dnc=0
 doc=180
 darq=180                                                                        ! variables always fixed
  
 rarq=2.5                                                                        ! scan
 aaro=15                                                                         ! fixed here
  
 basis=aug-cc-pvtz
  
 do i=1,3
 text,calculation for complex
 {hf
 open,16.1
 wf,39,1,1                                                                       ! 1: A' state in Cs group
 start,atdens
 }
 rccsd(t)
 e_NCOAr(i)=energy
  
 text,cp calculation for NCO
 dummy,Ar
 {hf
 open,9.1
 wf,21,1,1
 }
 rccsd(t)
 e_NCO(i)=energy
  
 text, cp calculation for Ar
 dummy,N,C,O
 hf
 rccsd(t)
 e_Ar(i)=energy
  
 de_cp(i)=(e_NCOAr(i)-e_NCO(i)-e_Ar(i))*tocm
 r(i)=rarq
 rarq=rarq+0.1
 enddo
  
 {table,r,de_cp,e_NCOAr,e_NCO,e_Ar
 head,R,E_cp,E_complex,E_NCO,E_Ar
 save,PES_15-no1-3.tab
 title,Result for angle 15
 }

 Variables initialized (664), CPU time= 0.00 sec
 Commands  initialized (462), CPU time= 0.00 sec, 486 directives.
 Default parameters read. Elapsed time= 0.02 sec

 Checking input...
 Passed
1


                                         ***  PROGRAM SYSTEM MOLPRO  ***
                         Copyright, University College Cardiff Consultants Limited, 2008

                                    Version 2010.1 linked 26 Jan 2011 12:51:57


 **********************************************************************************************************************************
 LABEL *                                                                                 
 Linux-3.4.6-2.10-desktop/linux-en55(x86_64) 64 bit mpp version                          DATE: 02-Dec-18          TIME: 02:30:13  
 **********************************************************************************************************************************

 Patch level:      13
 **********************************************************************************************************************************

 ZUNIT=ANG
 
 SETTING RQQ            =         1.00000000                                  
 SETTING RCQ1           =         0.03689800                                  
 SETTING RNQ1           =         1.26888900                                  
 SETTING ROQ1           =         1.13855700                                  
 SETTING ACQ2           =        90.00000000                                  
 SETTING ANQ2           =        90.00000000                                  
 SETTING AOQ2           =        90.00000000                                  
 SETTING DNC            =         0.00000000                                  
 SETTING DOC            =       180.00000000                                  
 SETTING DARQ           =       180.00000000                                  
 SETTING RARQ           =         2.50000000                                  
 SETTING AARO           =        15.00000000                                  

 Variable memory set to 1000000000 words,  buffer space   230000 words

 SETTING BASIS          =    AUG-CC-PVTZ

 DO I                   =         1.00000000   

 *** calculation for complex


 Recomputing integrals since basis changed


 Using spherical harmonics

 Library entry C      S aug-cc-pVTZ          selected for orbital group  1
 Library entry C      P aug-cc-pVTZ          selected for orbital group  1
 Library entry C      D aug-cc-pVTZ          selected for orbital group  1
 Library entry C      F aug-cc-pVTZ          selected for orbital group  1
 Library entry N      S aug-cc-pVTZ          selected for orbital group  2
 Library entry N      P aug-cc-pVTZ          selected for orbital group  2
 Library entry N      D aug-cc-pVTZ          selected for orbital group  2
 Library entry N      F aug-cc-pVTZ          selected for orbital group  2
 Library entry O      S aug-cc-pVTZ          selected for orbital group  3
 Library entry O      P aug-cc-pVTZ          selected for orbital group  3
 Library entry O      D aug-cc-pVTZ          selected for orbital group  3
 Library entry O      F aug-cc-pVTZ          selected for orbital group  3
 Library entry AR     S aug-cc-pVTZ          selected for orbital group  4
 Library entry AR     P aug-cc-pVTZ          selected for orbital group  4
 Library entry AR     D aug-cc-pVTZ          selected for orbital group  4
 Library entry AR     F aug-cc-pVTZ          selected for orbital group  4

1PROGRAM * SEWARD (Integral evaluation for generally contracted gaussian basis sets)     Author: Roland Lindh, 1990

 Geometry written to block  1 of record 700

 Orientation using atomic masses  
 Molecule type: Asymmetric top
 Symmetry elements: Y
 Rotational constants:       2.9886169      2.9503070    230.1583409 GHz  (calculated with average atomic masses)

 Point group  Cs  



 ATOMIC COORDINATES

 NR  ATOM    CHARGE       X              Y              Z

   1  C       6.00    0.136049884    0.000000000    2.366042008
   2  N       7.00   -0.319051184    0.000000000    4.649252854
   3  O       8.00    0.570266389    0.000000000    0.187607585
   4  AR     18.00   -0.157433689    0.000000000   -2.416662394

 Bond lengths in Bohr (Angstrom)

 1-2  2.328125586  1-3  2.221288030  1-4  4.791700534  3-4  2.704028388
     (1.231991000)     (1.175455000)     (2.535658715)     (1.430910195)

 Bond angles

  1-3-4  153.11552642   1-4-3   12.10026388   2-1-3  180.00000000   2-1-4  165.21579030

  3-1-4   14.78420970


 BASIS DATA

   Nr Sym  Nuc  Type         Exponents   Contraction coefficients

   1.1 A'    1  1s         8236.000000     0.000531   -0.000113    0.000000    0.000000
   2.1 A'                  1235.000000     0.004108   -0.000878    0.000000    0.000000
   3.1 A'                   280.800000     0.021087   -0.004540    0.000000    0.000000
   4.1 A'                    79.270000     0.081853   -0.018133    0.000000    0.000000
                             25.590000     0.234817   -0.055760    0.000000    0.000000
                              8.997000     0.434401   -0.126895    0.000000    0.000000
                              3.319000     0.346129   -0.170352    0.000000    0.000000
                              0.905900     0.039378    0.140382    1.000000    0.000000
                              0.364300    -0.008983    0.598684    0.000000    0.000000
                              0.128500     0.002385    0.395389    0.000000    1.000000
   5.1 A'    1  1s            0.044020     1.000000
   6.1 A'    1  2px          18.710000     0.014031
                              4.133000     0.086866
                              1.200000     0.290216
                              0.382700     0.501008
                              0.120900     0.343406
   7.1 A'    1  2pz          18.710000     0.014031
                              4.133000     0.086866
                              1.200000     0.290216
                              0.382700     0.501008
                              0.120900     0.343406
   8.1 A'    1  2px          18.710000     0.000000
                              4.133000     0.000000
                              1.200000     0.000000
                              0.382700     1.000000
                              0.120900     0.000000
   9.1 A'    1  2pz          18.710000     0.000000
                              4.133000     0.000000
                              1.200000     0.000000
                              0.382700     1.000000
                              0.120900     0.000000
  10.1 A'    1  2px          18.710000     0.000000
                              4.133000     0.000000
                              1.200000     0.000000
                              0.382700     0.000000
                              0.120900     1.000000
  11.1 A'    1  2pz          18.710000     0.000000
                              4.133000     0.000000
                              1.200000     0.000000
                              0.382700     0.000000
                              0.120900     1.000000
  12.1 A'    1  2px           0.035690     1.000000
  13.1 A'    1  2pz           0.035690     1.000000
  14.1 A'    1  3d0           1.097000     1.000000
  15.1 A'    1  3d1+          1.097000     1.000000
  16.1 A'    1  3d2+          1.097000     1.000000
  17.1 A'    1  3d0           0.318000     1.000000
  18.1 A'    1  3d1+          0.318000     1.000000
  19.1 A'    1  3d2+          0.318000     1.000000
  20.1 A'    1  3d0           0.100000     1.000000
  21.1 A'    1  3d1+          0.100000     1.000000
  22.1 A'    1  3d2+          0.100000     1.000000
  23.1 A'    1  4f1+          0.761000     1.000000
  24.1 A'    1  4f0           0.761000     1.000000
  25.1 A'    1  4f3+          0.761000     1.000000
  26.1 A'    1  4f2+          0.761000     1.000000
  27.1 A'    1  4f1+          0.268000     1.000000
  28.1 A'    1  4f0           0.268000     1.000000
  29.1 A'    1  4f3+          0.268000     1.000000
  30.1 A'    1  4f2+          0.268000     1.000000
  31.1 A'    2  1s        11420.000000     0.000523   -0.000115    0.000000    0.000000
  32.1 A'                  1712.000000     0.004045   -0.000895    0.000000    0.000000
  33.1 A'                   389.300000     0.020775   -0.004624    0.000000    0.000000
  34.1 A'                   110.000000     0.080727   -0.018528    0.000000    0.000000
                             35.570000     0.233074   -0.057339    0.000000    0.000000
                             12.540000     0.433501   -0.132076    0.000000    0.000000
                              4.644000     0.347472   -0.172510    0.000000    0.000000
                              1.293000     0.041262    0.151814    1.000000    0.000000
                              0.511800    -0.008508    0.599944    0.000000    0.000000
                              0.178700     0.002384    0.387462    0.000000    1.000000
  35.1 A'    2  1s            0.057600     1.000000
  36.1 A'    2  2px          26.630000     0.014670
                              5.948000     0.091764
                              1.742000     0.298683
                              0.555000     0.498487
                              0.172500     0.337023
  37.1 A'    2  2pz          26.630000     0.014670
                              5.948000     0.091764
                              1.742000     0.298683
                              0.555000     0.498487
                              0.172500     0.337023
  38.1 A'    2  2px          26.630000     0.000000
                              5.948000     0.000000
                              1.742000     0.000000
                              0.555000     1.000000
                              0.172500     0.000000
  39.1 A'    2  2pz          26.630000     0.000000
                              5.948000     0.000000
                              1.742000     0.000000
                              0.555000     1.000000
                              0.172500     0.000000
  40.1 A'    2  2px          26.630000     0.000000
                              5.948000     0.000000
                              1.742000     0.000000
                              0.555000     0.000000
                              0.172500     1.000000
  41.1 A'    2  2pz          26.630000     0.000000
                              5.948000     0.000000
                              1.742000     0.000000
                              0.555000     0.000000
                              0.172500     1.000000
  42.1 A'    2  2px           0.049100     1.000000
  43.1 A'    2  2pz           0.049100     1.000000
  44.1 A'    2  3d0           1.654000     1.000000
  45.1 A'    2  3d1+          1.654000     1.000000
  46.1 A'    2  3d2+          1.654000     1.000000
  47.1 A'    2  3d0           0.469000     1.000000
  48.1 A'    2  3d1+          0.469000     1.000000
  49.1 A'    2  3d2+          0.469000     1.000000
  50.1 A'    2  3d0           0.151000     1.000000
  51.1 A'    2  3d1+          0.151000     1.000000
  52.1 A'    2  3d2+          0.151000     1.000000
  53.1 A'    2  4f1+          1.093000     1.000000
  54.1 A'    2  4f0           1.093000     1.000000
  55.1 A'    2  4f3+          1.093000     1.000000
  56.1 A'    2  4f2+          1.093000     1.000000
  57.1 A'    2  4f1+          0.364000     1.000000
  58.1 A'    2  4f0           0.364000     1.000000
  59.1 A'    2  4f3+          0.364000     1.000000
  60.1 A'    2  4f2+          0.364000     1.000000
  61.1 A'    3  1s        15330.000000     0.000508   -0.000115    0.000000    0.000000
  62.1 A'                  2299.000000     0.003929   -0.000895    0.000000    0.000000
  63.1 A'                   522.400000     0.020243   -0.004636    0.000000    0.000000
  64.1 A'                   147.300000     0.079181   -0.018724    0.000000    0.000000
                             47.550000     0.230687   -0.058463    0.000000    0.000000
                             16.760000     0.433118   -0.136463    0.000000    0.000000
                              6.207000     0.350260   -0.175740    0.000000    0.000000
                              1.752000     0.042728    0.160934    1.000000    0.000000
                              0.688200    -0.008154    0.603418    0.000000    0.000000
                              0.238400     0.002381    0.378765    0.000000    1.000000
  65.1 A'    3  1s            0.073760     1.000000
  66.1 A'    3  2px          34.460000     0.015928
                              7.749000     0.099740
                              2.280000     0.310492
                              0.715600     0.491026
                              0.214000     0.336337
  67.1 A'    3  2pz          34.460000     0.015928
                              7.749000     0.099740
                              2.280000     0.310492
                              0.715600     0.491026
                              0.214000     0.336337
  68.1 A'    3  2px          34.460000     0.000000
                              7.749000     0.000000
                              2.280000     0.000000
                              0.715600     1.000000
                              0.214000     0.000000
  69.1 A'    3  2pz          34.460000     0.000000
                              7.749000     0.000000
                              2.280000     0.000000
                              0.715600     1.000000
                              0.214000     0.000000
  70.1 A'    3  2px          34.460000     0.000000
                              7.749000     0.000000
                              2.280000     0.000000
                              0.715600     0.000000
                              0.214000     1.000000
  71.1 A'    3  2pz          34.460000     0.000000
                              7.749000     0.000000
                              2.280000     0.000000
                              0.715600     0.000000
                              0.214000     1.000000
  72.1 A'    3  2px           0.059740     1.000000
  73.1 A'    3  2pz           0.059740     1.000000
  74.1 A'    3  3d0           2.314000     1.000000
  75.1 A'    3  3d1+          2.314000     1.000000
  76.1 A'    3  3d2+          2.314000     1.000000
  77.1 A'    3  3d0           0.645000     1.000000
  78.1 A'    3  3d1+          0.645000     1.000000
  79.1 A'    3  3d2+          0.645000     1.000000
  80.1 A'    3  3d0           0.214000     1.000000
  81.1 A'    3  3d1+          0.214000     1.000000
  82.1 A'    3  3d2+          0.214000     1.000000
  83.1 A'    3  4f1+          1.428000     1.000000
  84.1 A'    3  4f0           1.428000     1.000000
  85.1 A'    3  4f3+          1.428000     1.000000
  86.1 A'    3  4f2+          1.428000     1.000000
  87.1 A'    3  4f1+          0.500000     1.000000
  88.1 A'    3  4f0           0.500000     1.000000
  89.1 A'    3  4f3+          0.500000     1.000000
  90.1 A'    3  4f2+          0.500000     1.000000
  91.1 A'    4  1s       545000.000000     0.000046   -0.000013    0.000004    0.000000    0.000000
  92.1 A'                 81640.000000     0.000354   -0.000100    0.000031    0.000000    0.000000
  93.1 A'                 18580.000000     0.001858   -0.000530    0.000166    0.000000    0.000000
  94.1 A'                  5261.000000     0.007769   -0.002214    0.000692    0.000000    0.000000
  95.1 A'                  1717.000000     0.027423   -0.007968    0.002498    0.000000    0.000000
                            619.900000     0.082384   -0.024580    0.007711    0.000000    0.000000
                            241.600000     0.201230   -0.065780    0.020871    0.000000    0.000000
                             99.790000     0.356781   -0.137942    0.044396    0.000000    0.000000
                             43.150000     0.349563   -0.201630    0.068022    0.000000    0.000000
                             19.140000     0.118266   -0.041283    0.014135    0.000000    0.000000
                              7.488000     0.005602    0.484680   -0.207489    0.000000    0.000000
                              3.205000     0.000483    0.579224   -0.425045    0.000000    0.000000
                              1.196000    -0.000148    0.087908    0.070486    1.000000    0.000000
                              0.520400     0.000029   -0.007276    0.733627    0.000000    0.000000
                              0.195400    -0.000023    0.002329    0.396005    0.000000    1.000000
  96.1 A'    4  1s            0.068500     1.000000
  97.1 A'    4  2px         761.800000     0.002370
                            180.200000     0.019020
                             57.500000     0.088081
                             21.240000     0.256377
                              8.388000     0.438711
                              3.416000     0.347569
                              1.206000     0.056674
                              0.452300    -0.005239
                              0.154500     0.001644
  98.1 A'    4  2pz         761.800000     0.002370
                            180.200000     0.019020
                             57.500000     0.088081
                             21.240000     0.256377
                              8.388000     0.438711
                              3.416000     0.347569
                              1.206000     0.056674
                              0.452300    -0.005239
                              0.154500     0.001644
  99.1 A'    4  2px         761.800000    -0.000667
                            180.200000    -0.005327
                             57.500000    -0.025549
                             21.240000    -0.075720
                              8.388000    -0.141133
                              3.416000    -0.093277
                              1.206000     0.282872
                              0.452300     0.562450
                              0.154500     0.325059
 100.1 A'    4  2pz         761.800000    -0.000667
                            180.200000    -0.005327
                             57.500000    -0.025549
                             21.240000    -0.075720
                              8.388000    -0.141133
                              3.416000    -0.093277
                              1.206000     0.282872
                              0.452300     0.562450
                              0.154500     0.325059
 101.1 A'    4  2px         761.800000     0.000000
                            180.200000     0.000000
                             57.500000     0.000000
                             21.240000     0.000000
                              8.388000     0.000000
                              3.416000     0.000000
                              1.206000     1.000000
                              0.452300     0.000000
                              0.154500     0.000000
 102.1 A'    4  2pz         761.800000     0.000000
                            180.200000     0.000000
                             57.500000     0.000000
                             21.240000     0.000000
                              8.388000     0.000000
                              3.416000     0.000000
                              1.206000     1.000000
                              0.452300     0.000000
                              0.154500     0.000000
 103.1 A'    4  2px         761.800000     0.000000
                            180.200000     0.000000
                             57.500000     0.000000
                             21.240000     0.000000
                              8.388000     0.000000
                              3.416000     0.000000
                              1.206000     0.000000
                              0.452300     0.000000
                              0.154500     1.000000
 104.1 A'    4  2pz         761.800000     0.000000
                            180.200000     0.000000
                             57.500000     0.000000
                             21.240000     0.000000
                              8.388000     0.000000
                              3.416000     0.000000
                              1.206000     0.000000
                              0.452300     0.000000
                              0.154500     1.000000
 105.1 A'    4  2px           0.048700     1.000000
 106.1 A'    4  2pz           0.048700     1.000000
 107.1 A'    4  3d0           0.410000     1.000000
 108.1 A'    4  3d1+          0.410000     1.000000
 109.1 A'    4  3d2+          0.410000     1.000000
 110.1 A'    4  3d0           1.254000     1.000000
 111.1 A'    4  3d1+          1.254000     1.000000
 112.1 A'    4  3d2+          1.254000     1.000000
 113.1 A'    4  3d0           0.169000     1.000000
 114.1 A'    4  3d1+          0.169000     1.000000
 115.1 A'    4  3d2+          0.169000     1.000000
 116.1 A'    4  4f1+          0.890000     1.000000
 117.1 A'    4  4f0           0.890000     1.000000
 118.1 A'    4  4f3+          0.890000     1.000000
 119.1 A'    4  4f2+          0.890000     1.000000
 120.1 A'    4  4f1+          0.406000     1.000000
 121.1 A'    4  4f0           0.406000     1.000000
 122.1 A'    4  4f3+          0.406000     1.000000
 123.1 A'    4  4f2+          0.406000     1.000000
   1.2 A"    1  2py          18.710000     0.014031    0.000000    0.000000
   2.2 A"                     4.133000     0.086866    0.000000    0.000000
   3.2 A"                     1.200000     0.290216    0.000000    0.000000
                              0.382700     0.501008    1.000000    0.000000
                              0.120900     0.343406    0.000000    1.000000
   4.2 A"    1  2py           0.035690     1.000000
   5.2 A"    1  3d2-          1.097000     1.000000
   6.2 A"    1  3d1-          1.097000     1.000000
   7.2 A"    1  3d2-          0.318000     1.000000
   8.2 A"    1  3d1-          0.318000     1.000000
   9.2 A"    1  3d2-          0.100000     1.000000
  10.2 A"    1  3d1-          0.100000     1.000000
  11.2 A"    1  4f1-          0.761000     1.000000
  12.2 A"    1  4f2-          0.761000     1.000000
  13.2 A"    1  4f3-          0.761000     1.000000
  14.2 A"    1  4f1-          0.268000     1.000000
  15.2 A"    1  4f2-          0.268000     1.000000
  16.2 A"    1  4f3-          0.268000     1.000000
  17.2 A"    2  2py          26.630000     0.014670    0.000000    0.000000
  18.2 A"                     5.948000     0.091764    0.000000    0.000000
  19.2 A"                     1.742000     0.298683    0.000000    0.000000
                              0.555000     0.498487    1.000000    0.000000
                              0.172500     0.337023    0.000000    1.000000
  20.2 A"    2  2py           0.049100     1.000000
  21.2 A"    2  3d2-          1.654000     1.000000
  22.2 A"    2  3d1-          1.654000     1.000000
  23.2 A"    2  3d2-          0.469000     1.000000
  24.2 A"    2  3d1-          0.469000     1.000000
  25.2 A"    2  3d2-          0.151000     1.000000
  26.2 A"    2  3d1-          0.151000     1.000000
  27.2 A"    2  4f1-          1.093000     1.000000
  28.2 A"    2  4f2-          1.093000     1.000000
  29.2 A"    2  4f3-          1.093000     1.000000
  30.2 A"    2  4f1-          0.364000     1.000000
  31.2 A"    2  4f2-          0.364000     1.000000
  32.2 A"    2  4f3-          0.364000     1.000000
  33.2 A"    3  2py          34.460000     0.015928    0.000000    0.000000
  34.2 A"                     7.749000     0.099740    0.000000    0.000000
  35.2 A"                     2.280000     0.310492    0.000000    0.000000
                              0.715600     0.491026    1.000000    0.000000
                              0.214000     0.336337    0.000000    1.000000
  36.2 A"    3  2py           0.059740     1.000000
  37.2 A"    3  3d2-          2.314000     1.000000
  38.2 A"    3  3d1-          2.314000     1.000000
  39.2 A"    3  3d2-          0.645000     1.000000
  40.2 A"    3  3d1-          0.645000     1.000000
  41.2 A"    3  3d2-          0.214000     1.000000
  42.2 A"    3  3d1-          0.214000     1.000000
  43.2 A"    3  4f1-          1.428000     1.000000
  44.2 A"    3  4f2-          1.428000     1.000000
  45.2 A"    3  4f3-          1.428000     1.000000
  46.2 A"    3  4f1-          0.500000     1.000000
  47.2 A"    3  4f2-          0.500000     1.000000
  48.2 A"    3  4f3-          0.500000     1.000000
  49.2 A"    4  2py         761.800000     0.002370   -0.000667    0.000000    0.000000
  50.2 A"                   180.200000     0.019020   -0.005327    0.000000    0.000000
  51.2 A"                    57.500000     0.088081   -0.025549    0.000000    0.000000
  52.2 A"                    21.240000     0.256377   -0.075720    0.000000    0.000000
                              8.388000     0.438711   -0.141133    0.000000    0.000000
                              3.416000     0.347569   -0.093277    0.000000    0.000000
                              1.206000     0.056674    0.282872    1.000000    0.000000
                              0.452300    -0.005239    0.562450    0.000000    0.000000
                              0.154500     0.001644    0.325059    0.000000    1.000000
  53.2 A"    4  2py           0.048700     1.000000
  54.2 A"    4  3d2-          0.410000     1.000000
  55.2 A"    4  3d1-          0.410000     1.000000
  56.2 A"    4  3d2-          1.254000     1.000000
  57.2 A"    4  3d1-          1.254000     1.000000
  58.2 A"    4  3d2-          0.169000     1.000000
  59.2 A"    4  3d1-          0.169000     1.000000
  60.2 A"    4  4f1-          0.890000     1.000000
  61.2 A"    4  4f2-          0.890000     1.000000
  62.2 A"    4  4f3-          0.890000     1.000000
  63.2 A"    4  4f1-          0.406000     1.000000
  64.2 A"    4  4f2-          0.406000     1.000000
  65.2 A"    4  4f3-          0.406000     1.000000

 NUCLEAR CHARGE:                   39
 NUMBER OF PRIMITIVE AOS:         285
 NUMBER OF SYMMETRY AOS:          249
 NUMBER OF CONTRACTIONS:          188   ( 123A'  +  65A"  )
 NUMBER OF CORE ORBITALS:           8   (   7A'  +   1A"  )
 NUMBER OF VALENCE ORBITALS:       16   (  12A'  +   4A"  )


 NUCLEAR REPULSION ENERGY  145.57889874


 Eigenvalues of metric

         1 0.121E-03 0.184E-03 0.271E-03 0.602E-03 0.652E-03 0.937E-03 0.129E-02 0.168E-02
         2 0.207E-02 0.242E-02 0.627E-02 0.810E-02 0.137E-01 0.176E-01 0.237E-01 0.289E-01


 Contracted 2-electron integrals neglected if value below      1.0D-11
 AO integral compression algorithm  1   Integral accuracy      1.0D-11

     372.244 MB (compressed) written to integral file ( 47.8%)

     Node minimum: 372.244 MB, node maximum: 372.244 MB


 NUMBER OF SORTED TWO-ELECTRON INTEGRALS:   80456646.     BUFFER LENGTH:  32768
 NUMBER OF SEGMENTS:   6  SEGMENT LENGTH:   15997996      RECORD LENGTH: 524288

 Memory used in sort:      16.56 MW

 SORT1 READ    97245779. AND WROTE    76596793. INTEGRALS IN    223 RECORDS. CPU TIME:     0.96 SEC, REAL TIME:     5.01 SEC
 SORT2 READ    76596793. AND WROTE    80456646. INTEGRALS IN   1420 RECORDS. CPU TIME:     1.04 SEC, REAL TIME:     1.27 SEC

 FILE SIZES:   FILE 1:   319.5 MBYTE,  FILE 4:   935.4 MBYTE,   TOTAL:   1254.9 MBYTE

 OPERATOR DM      FOR CENTER  0  COORDINATES:    0.000000    0.000000    0.000000


 **********************************************************************************************************************************
 DATASETS  * FILE   NREC   LENGTH (MB)   RECORD NAMES
              1      19      319.74       500      610      700      900      950      970     1000      129      960     1100   
                                          VAR    BASINP    GEOM    SYMINP    ZMAT    AOBASIS   BASIS     P2S    ABASIS      S 
                                         1400     1410     1200     1210     1080     1600     1650     1300     1700   
                                           T        V       H0       H01     AOSYM     SMH    MOLCAS    ERIS     OPER   

 PROGRAMS   *        TOTAL       INT
 CPU TIMES  *         7.84      7.80
 REAL TIME  *        15.24 SEC
 DISK USED  *         1.63 GB      
 GA USED    *         0.00 MB       (max)       0.00 MB       (current)
 **********************************************************************************************************************************

1PROGRAM * RHF-SCF (OPEN SHELL)       Authors: W. Meyer, H.-J. Werner


 NUMBER OF ELECTRONS:      20+   19-    SPACE SYMMETRY=1    SPIN SYMMETRY=Doublet 
 CONVERGENCE THRESHOLDS:    1.00E-05 (Density)    1.00E-07 (Energy)
 MAX. NUMBER OF ITERATIONS:       60
 INTERPOLATION TYPE:            DIIS
 INTERPOLATION STEPS:              2 (START)      1 (STEP)
 LEVEL SHIFTS:                 -0.30 (CLOSED)  0.00 (OPEN) 


 Singly occupied orbitals:     16.1
 Orbital guess generated from atomic densities. Full valence occupancy:   19   5

 Molecular orbital dump at record        2100.2

 ITERATION    DDIFF          GRAD             ENERGY        2-EL.EN.            DIPOLE MOMENTS         DIIS
    1      0.000D+00      0.000D+00      -693.41162214    800.487299    0.24577    0.00000   -4.43586    0
    2      0.000D+00      0.747D-02      -693.51794751    811.410843   -0.00012    0.00000   -1.57423    1
    3      0.125D-01      0.532D-02      -693.57834540    807.865265    0.17304    0.00000   -2.34655    2
    4      0.528D-02      0.750D-03      -693.58305342    807.960226    0.14737    0.00000   -2.24509    3
    5      0.158D-02      0.399D-03      -693.58418451    807.954605    0.14920    0.00000   -2.18166    4
    6      0.770D-03      0.136D-03      -693.58438403    807.980914    0.14547    0.00000   -2.16105    5
    7      0.350D-03      0.494D-04      -693.58440586    807.957954    0.14476    0.00000   -2.15618    6
    8      0.125D-03      0.197D-04      -693.58440886    807.960699    0.14474    0.00000   -2.15681    7
    9      0.413D-04      0.835D-05      -693.58440977    807.959651    0.14466    0.00000   -2.15587    8
   10      0.265D-04      0.432D-05      -693.58441004    807.959731    0.14473    0.00000   -2.15548    8
   11      0.148D-04      0.248D-05      -693.58441015    807.959658    0.14478    0.00000   -2.15538    8
   12      0.107D-04      0.121D-05      -693.58441018    807.959767    0.14478    0.00000   -2.15532    9
   13      0.611D-05      0.548D-06      -693.58441018    807.959648    0.14479    0.00000   -2.15536    0

 Final alpha occupancy:  16   4
 Final beta  occupancy:  15   4

 !RHF STATE 1.1 Energy               -693.584410180339
 Nuclear energy                       145.57889874
 One-electron energy                -1243.14313282
 Two-electron energy                  403.97982390
 Virial quotient                       -0.99849021
 !RHF STATE 1.1 Dipole moment           0.14478658     0.00000000    -2.15535734
 Dipole moment /Debye                   0.36798667     0.00000000    -5.47801311

 ELECTRON ORBITALS
 =================


   Orb  Occ    Energy  Couls-En    Coefficients

                                   1 1s      1 1s      1 1s      1 1s      1 1s      1 2px     1 2pz     1 2px     1 2pz     1 2px  
                                   1 2pz     1 2px     1 2pz     1 3d0     1 3d1+    1 3d2+    1 3d0     1 3d1+    1 3d2+    1 3d0  
                                   1 3d1+    1 3d2+    1 4f1+    1 4f0     1 4f3+    1 4f2+    1 4f1+    1 4f0     1 4f3+    1 4f2+ 
                                   2 1s      2 1s      2 1s      2 1s      2 1s      2 2px     2 2pz     2 2px     2 2pz     2 2px  
                                   2 2pz     2 2px     2 2pz     2 3d0     2 3d1+    2 3d2+    2 3d0     2 3d1+    2 3d2+    2 3d0  
                                   2 3d1+    2 3d2+    2 4f1+    2 4f0     2 4f3+    2 4f2+    2 4f1+    2 4f0     2 4f3+    2 4f2+ 
                                   3 1s      3 1s      3 1s      3 1s      3 1s      3 2px     3 2pz     3 2px     3 2pz     3 2px  
                                   3 2pz     3 2px     3 2pz     3 3d0     3 3d1+    3 3d2+    3 3d0     3 3d1+    3 3d2+    3 3d0  
                                   3 3d1+    3 3d2+    3 4f1+    3 4f0     3 4f3+    3 4f2+    3 4f1+    3 4f0     3 4f3+    3 4f2+ 
                                   4 1s      4 1s      4 1s      4 1s      4 1s      4 1s      4 2px     4 2pz     4 2px     4 2pz  
                                   4 2px     4 2pz     4 2px     4 2pz     4 2px     4 2pz     4 3d0     4 3d1+    4 3d2+    4 3d0  
                                   4 3d1+    4 3d2+    4 3d0     4 3d1+    4 3d2+    4 4f1+    4 4f0     4 4f3+    4 4f2+    4 4f1+ 
                                   4 4f0     4 4f3+    4 4f2+ 

   1.1   2  -118.7538 -285.8293 -0.000002 -0.000005 -0.000001 -0.000019 -0.000008 -0.000003 -0.000003  0.000015  0.000012 -0.000003
                                 0.000008 -0.000002 -0.000004  0.000001 -0.000002  0.000000  0.000007 -0.000012  0.000005 -0.000018
                                -0.000003  0.000001  0.000003  0.000002  0.000000 -0.000001 -0.000003 -0.000013  0.000001 -0.000004
                                 0.000001  0.000004  0.000000 -0.000001 -0.000004 -0.000001 -0.000001  0.000001  0.000004  0.000010
                                 0.000016  0.000001  0.000005  0.000000  0.000000  0.000000 -0.000003  0.000000  0.000002 -0.000004
                                -0.000001  0.000002 -0.000001  0.000000  0.000000  0.000000 -0.000001 -0.000001  0.000000 -0.000001
                                 0.000001  0.000001  0.000006 -0.000168 -0.000113 -0.000002 -0.000003  0.000008  0.000016  0.000030
                                 0.000174  0.000009  0.000029  0.000000  0.000000  0.000000 -0.000021 -0.000013 -0.000001 -0.000036
                                -0.000042 -0.000006  0.000001  0.000001  0.000000  0.000000 -0.000001  0.000002  0.000001  0.000001
                                 0.999995 -0.000039 -0.000023  0.000016  0.000238  0.000101  0.000024  0.000108  0.000044  0.000181
                                -0.000025 -0.000109  0.000009  0.000055  0.000004  0.000013  0.000035  0.000017  0.000003  0.000004
                                 0.000001  0.000000  0.000025  0.000008  0.000000  0.000003  0.000004  0.000000  0.000001  0.000005
                                 0.000007  0.000000  0.000001

   2.1   2   -20.6712  -63.4884  0.000391  0.001563 -0.000251  0.000997 -0.000014  0.000283 -0.001177 -0.000735  0.000535 -0.000479
                                -0.000598 -0.000154  0.000030  0.000355 -0.000068 -0.000018  0.001691 -0.000090 -0.000072 -0.000087
                                 0.000198 -0.000066 -0.000220  0.000270 -0.000018  0.000085  0.000358 -0.000857 -0.000014  0.000023
                                -0.000179 -0.000581  0.000159 -0.000896 -0.000294  0.000009 -0.000050 -0.000161  0.000790 -0.000223
                                 0.001088  0.000019  0.000055 -0.000097  0.000024  0.000004 -0.000279  0.000092 -0.000044 -0.000190
                                 0.000045  0.000002 -0.000031  0.000095 -0.000002  0.000009  0.000038 -0.000042 -0.000002  0.000006
                                 0.998076 -0.003306  0.002518 -0.002722 -0.002530 -0.002729  0.001460  0.002237 -0.001208  0.002404
                                 0.003367  0.000565  0.000649  0.000357 -0.000007  0.000020 -0.001229 -0.000065 -0.000108  0.000510
                                -0.000344 -0.000077 -0.000040  0.000012  0.000003 -0.000008  0.000577  0.000238 -0.000002  0.000051
                                 0.000084  0.000494  0.000848 -0.000580  0.003137  0.002137  0.000181  0.001047  0.000661  0.003628
                                -0.000219 -0.001334  0.000050  0.000940  0.000042  0.000259  0.001065  0.000353 -0.000004  0.000176
                                 0.000094  0.000018  0.000398  0.000073 -0.000046  0.000122  0.000181  0.000006  0.000028  0.000119
                                 0.000231 -0.000023 -0.000036

   3.1   2   -15.5678  -46.8795  0.000657  0.002238  0.000009 -0.003696 -0.000709 -0.000320  0.001483  0.000048 -0.000662  0.000817
                                -0.005650 -0.000086  0.000097  0.000232 -0.000057 -0.000015  0.000734 -0.000277  0.000054 -0.001373
                                 0.000332 -0.000027  0.000351 -0.000712 -0.000005 -0.000026  0.000027 -0.000536  0.000008 -0.000021
                                 0.999229 -0.001790  0.000933  0.006453  0.001081  0.001247 -0.006553 -0.000793  0.004593  0.000001
                                 0.001811  0.000090 -0.000148  0.000493 -0.000168  0.000000 -0.000660  0.000150 -0.000013 -0.000474
                                 0.000070  0.000028  0.000040 -0.000064 -0.000001  0.000000 -0.000158  0.000331  0.000002  0.000010
                                -0.000501 -0.001585  0.000316 -0.002143 -0.003619 -0.000029  0.000099  0.000216 -0.001158  0.000730
                                 0.003154  0.000502 -0.000493 -0.000071  0.000029  0.000001 -0.000259  0.000108 -0.000029  0.000209
                                -0.000934 -0.000064  0.000017 -0.000084  0.000001 -0.000014  0.000186  0.000100 -0.000001  0.000041
                                -0.000012 -0.000072 -0.000113  0.000021  0.002861  0.001737 -0.000019  0.000343 -0.000045  0.001113
                                 0.000050 -0.000409  0.000193  0.001416 -0.000007  0.000337  0.000163 -0.000071 -0.000039  0.000016
                                 0.000022  0.000008  0.000348  0.000127 -0.000077 -0.000029  0.000019  0.000008  0.000009 -0.000010
                                -0.000059 -0.000027 -0.000068

   4.1   2   -12.4594  -56.5598 -0.000103 -0.000313 -0.000207 -0.000307  0.000308  0.000010  0.000111 -0.001007 -0.000270 -0.000134
                                 0.000102  0.000080 -0.000071  0.000091  0.000119 -0.000038  0.000395  0.000355 -0.000187 -0.000361
                                 0.000351 -0.000053 -0.000128 -0.000122 -0.000023  0.000116  0.000243 -0.000071 -0.000040  0.000101
                                 0.000019  0.000060  0.000002  0.000177  0.000317 -0.000006  0.000004 -0.000033 -0.000010 -0.000219
                                 0.000211 -0.000027 -0.000028  0.000001 -0.000010  0.000012 -0.000040 -0.000059 -0.000055 -0.000090
                                 0.000008 -0.000036  0.000024  0.000012 -0.000002  0.000000  0.000089  0.000045 -0.000005  0.000017
                                 0.000095  0.000641 -0.000059 -0.000318  0.001015 -0.000161 -0.000259  0.000014 -0.000731  0.000893
                                 0.002083 -0.000004 -0.001426  0.000122  0.000043  0.000009 -0.000060  0.000243 -0.000017  0.000202
                                 0.000414  0.000055  0.000028 -0.000001  0.000007 -0.000004  0.000526  0.000684 -0.000016  0.000023
                                 0.000090  1.000437  0.000547 -0.000237  0.000841 -0.002259  0.001574  0.006395  0.000030 -0.000756
                                 0.000354  0.001851  0.000083  0.000469 -0.000188 -0.000235 -0.000994 -0.000346 -0.000039  0.000988
                                 0.000448  0.000060  0.000255  0.000114  0.000006  0.000135  0.000151  0.000004  0.000029 -0.000247
                                -0.000372 -0.000010 -0.000056

   5.1   2   -11.3591  -39.6558  1.000965  0.008228  0.004157 -0.001434  0.002104  0.001833 -0.010264 -0.001346  0.011754 -0.000121
                                 0.005213  0.000195  0.000074  0.001788 -0.000766  0.000111 -0.003369  0.000885 -0.000120 -0.000403
                                 0.000379  0.000003 -0.000194  0.000761 -0.000002  0.000018 -0.000137  0.001030 -0.000026  0.000065
                                -0.000675 -0.000275  0.000486 -0.003546 -0.002342  0.000233 -0.000949 -0.000545  0.001792 -0.001283
                                 0.003328 -0.000266  0.000637 -0.000109  0.000041 -0.000001 -0.001529  0.000745 -0.000119 -0.000909
                                 0.000493 -0.000122 -0.000078  0.000073 -0.000002  0.000016 -0.000402  0.000662 -0.000011  0.000105
                                 0.000735  0.003959 -0.000156  0.007318  0.003671 -0.000270  0.001069 -0.000348  0.001837 -0.000691
                                -0.009461 -0.000539 -0.002555  0.000253 -0.000056  0.000015 -0.000906 -0.000080 -0.000033  0.000441
                                 0.000518  0.000100 -0.000069  0.000224  0.000005  0.000000  0.000744 -0.002613 -0.000009  0.000089
                                -0.000046 -0.000303 -0.000641  0.000039 -0.006404 -0.005666 -0.000810 -0.000747 -0.002620 -0.002536
                                 0.001003  0.000720 -0.000713 -0.003572 -0.000207 -0.000687  0.000189 -0.000963 -0.000424 -0.000062
                                -0.000093  0.000001 -0.000995 -0.000550 -0.000095 -0.000109  0.000145 -0.000012 -0.000087 -0.000103
                                 0.000268 -0.000084 -0.000231

   6.1   2    -9.7113  -53.0874  0.000288  0.000989  0.000165  0.002859  0.000403  0.000230 -0.000035 -0.001597 -0.001751 -0.000281
                                -0.001868 -0.000072  0.000243 -0.000016  0.000211 -0.000005 -0.000545  0.000860 -0.000548  0.002347
                                 0.000043 -0.000141 -0.000277 -0.000160 -0.000020  0.000184  0.000238  0.001342 -0.000155  0.000389
                                -0.000159 -0.000540 -0.000042  0.000267  0.000192 -0.000006  0.000150 -0.000105 -0.000402 -0.000358
                                -0.001924  0.000010 -0.000455 -0.000019 -0.000016  0.000033  0.000311 -0.000189 -0.000154  0.000408
                                -0.000123 -0.000108  0.000062 -0.000002 -0.000002 -0.000016  0.000167  0.000082 -0.000010  0.000076
                                 0.000034  0.000857 -0.000129  0.013357  0.007502 -0.000134 -0.000674 -0.000447 -0.000563 -0.002073
                                -0.016841 -0.000377 -0.000429  0.000117  0.000022  0.000004  0.000687  0.000662  0.000038  0.003304
                                 0.004230  0.000628  0.000107  0.000196  0.000020  0.000005  0.000592  0.000070 -0.000058  0.000017
                                 0.000073 -0.006334  0.004300  0.001341 -0.024824 -0.005644  0.267618  0.958461 -0.003235 -0.011771
                                 0.001936  0.007495 -0.001341 -0.008119 -0.000117 -0.000798 -0.003487 -0.001823 -0.000295  0.001789
                                 0.000878  0.000123 -0.002849 -0.000927  0.000004  0.000397  0.000574 -0.000001  0.000049 -0.000970
                                -0.001240 -0.000021 -0.000197

   7.1   2    -9.7052  -53.0558 -0.000347 -0.001176  0.000135  0.006252  0.000671  0.000043 -0.000100 -0.000141  0.001298  0.000875
                                -0.004406  0.000359 -0.000626 -0.000068 -0.000034 -0.000051  0.001248  0.000184  0.000120  0.000746
                                 0.000358  0.000115  0.000007  0.000040 -0.000031  0.000033 -0.000204 -0.000010  0.000098 -0.000337
                                -0.000246 -0.000777  0.000140 -0.000773 -0.000322  0.000043 -0.000102 -0.000171  0.000533 -0.000948
                                 0.001688 -0.000416  0.000436  0.000012 -0.000031 -0.000020 -0.000257  0.000303  0.000085 -0.000900
                                 0.000521 -0.000068  0.000015 -0.000038 -0.000001  0.000007 -0.000200  0.000184  0.000012 -0.000027
                                -0.000077 -0.000230  0.000040 -0.002125 -0.002342  0.000057 -0.000021  0.000212 -0.000026  0.002663
                                -0.001059  0.000107  0.000820  0.000014 -0.000010  0.000013  0.000128 -0.000308 -0.000176  0.002710
                                -0.002037 -0.000836 -0.000058  0.000085 -0.000025 -0.000031  0.000328 -0.000332  0.000105  0.000193
                                 0.000010  0.000320 -0.000088 -0.000107 -0.001172  0.000343  0.962865 -0.268723 -0.001917  0.000467
                                 0.000261 -0.000215 -0.001215 -0.000530 -0.000249  0.000141  0.000905 -0.001611 -0.000429 -0.000577
                                 0.001137  0.000299  0.000086 -0.000780 -0.000302  0.000296 -0.000207  0.000029  0.000167 -0.000788
                                 0.000634 -0.000077 -0.000448

   8.1   2    -1.6857  -20.4068 -0.009515  0.205986 -0.003270 -0.047805  0.020412  0.023182 -0.155833 -0.002311  0.039832 -0.008839
                                 0.071722  0.001864 -0.003755  0.014692 -0.004621  0.000481  0.012416 -0.001639  0.001212 -0.020770
                                 0.005147  0.000080  0.002355 -0.003435  0.000173 -0.000972 -0.000991 -0.006357  0.000339 -0.000547
                                 0.001004  0.017284  0.001380 -0.025497 -0.015781  0.000627 -0.008403 -0.000455  0.004780 -0.006351
                                 0.032249 -0.001774  0.008420  0.000388 -0.000162 -0.000032 -0.005606  0.003072  0.000045 -0.006892
                                 0.003753 -0.000336 -0.000563  0.000701  0.000011  0.000063 -0.002023  0.001452 -0.000035  0.000215
                                -0.008754  0.718634 -0.012744 -0.051783  0.001319 -0.068550 -0.052379 -0.006082 -0.010622  0.014262
                                 0.018785  0.000683 -0.031876  0.008103  0.001262  0.000717  0.025745  0.004779  0.002217 -0.014010
                                -0.003540 -0.001531 -0.003879 -0.001678 -0.000162 -0.000349 -0.005005 -0.000473  0.000073 -0.000890
                                 0.000607 -0.001217  0.514611 -0.001291 -0.047778 -0.049193 -0.003206 -0.015699  0.047863  0.178107
                                 0.001024  0.007675 -0.015037 -0.055438 -0.004718 -0.005944  0.014983  0.007490  0.001560  0.022694
                                 0.010055  0.001220 -0.006866 -0.003060 -0.000414  0.005193  0.007734  0.000097  0.001076 -0.000866
                                -0.001317  0.000149  0.000190

   9.1   2    -1.3740  -19.2772 -0.009428  0.409098  0.000570 -0.088265  0.016267  0.050912 -0.220933 -0.002569  0.010738 -0.018507
                                 0.100208  0.002979  0.002969  0.021362 -0.008212  0.001067  0.007943 -0.005630  0.000091  0.006022
                                 0.003806 -0.000659  0.003374 -0.006337  0.000097 -0.000591 -0.000020  0.008830 -0.000352  0.000626
                                -0.001019  0.083027 -0.000319 -0.041476 -0.022100  0.007261 -0.035389 -0.000293 -0.001660 -0.008068
                                 0.012569 -0.004187  0.003732  0.001781 -0.000669  0.000100  0.000900 -0.000192 -0.000245  0.000918
                                 0.000282 -0.000703 -0.000124  0.000212  0.000004 -0.000033 -0.000475  0.002032 -0.000034  0.000333
                                -0.002617  0.408326 -0.004933 -0.004839  0.026980 -0.002513  0.357465 -0.001186 -0.001252 -0.010280
                                -0.171818 -0.004860 -0.010293  0.003294 -0.004635 -0.000052  0.003837 -0.010679 -0.000007 -0.017217
                                 0.020450  0.002273  0.000040  0.005952  0.000020  0.000487 -0.000952 -0.000288 -0.000064  0.000018
                                -0.000250 -0.003254 -0.741464 -0.003355 -0.027659 -0.033341  0.000555 -0.003759 -0.013034 -0.021033
                                -0.000868  0.004301  0.005065 -0.032806 -0.001153 -0.001906  0.000842  0.000413  0.000236 -0.000216
                                -0.002042 -0.000596 -0.012489  0.000135  0.001982 -0.001039 -0.000403 -0.000175 -0.000657  0.001115
                                 0.001426  0.000373  0.001155

  10.1   2    -1.1604  -14.9057 -0.006752  0.488286  0.000438 -0.111899  0.014483 -0.079975  0.393556  0.023278 -0.121827  0.033866
                                -0.153801  0.004259 -0.007138  0.014624 -0.005165  0.000813 -0.005937  0.002080 -0.000879 -0.004531
                                 0.006432 -0.001032 -0.001888  0.003414  0.000078  0.000128  0.004742 -0.001957 -0.000428  0.000565
                                -0.010762  0.720901 -0.007633 -0.049959  0.006510  0.047304 -0.239546  0.000096 -0.004300 -0.013452
                                 0.041203 -0.003568  0.005118  0.012743 -0.004460  0.000447  0.026684 -0.008814  0.000260 -0.000417
                                 0.001159 -0.001064  0.002381 -0.004806  0.000046 -0.000462  0.002077 -0.003354 -0.000049  0.000091
                                 0.001479 -0.161218  0.003548 -0.059781 -0.033158 -0.007860  0.015497  0.003309 -0.002623 -0.001202
                                -0.069254 -0.002446 -0.014818 -0.000370 -0.000087 -0.000005 -0.012888  0.002090 -0.000192 -0.022596
                                 0.020016  0.003050  0.000709 -0.000217  0.000051  0.000068  0.002533 -0.005115 -0.000207 -0.000797
                                 0.000232  0.003268  0.180637  0.000662 -0.002466 -0.017429  0.002044  0.003196 -0.023029 -0.081491
                                -0.002168 -0.001646  0.014247 -0.000797 -0.001694 -0.000807 -0.006604 -0.001225 -0.000236 -0.007031
                                -0.004491 -0.000708 -0.006223  0.004577  0.002680 -0.001666 -0.001530 -0.000174 -0.000875  0.001550
                                -0.000100  0.000217  0.001265

  11.1   2    -0.9855  -18.4771  0.001428 -0.241684 -0.002731  0.067750 -0.004646 -0.079516  0.329051  0.013225 -0.033178  0.029005
                                -0.154708 -0.002015 -0.005898 -0.011021  0.004053 -0.000575 -0.003932  0.002780  0.001170 -0.011301
                                -0.000923  0.000527 -0.002338  0.006218  0.000036 -0.000086 -0.000269 -0.015715  0.000703 -0.001829
                                -0.001573  0.182969 -0.001410  0.018213  0.015949  0.003922 -0.037041  0.001091  0.002779  0.003416
                                 0.015773  0.002293  0.001439  0.002430 -0.000688 -0.000069  0.005395 -0.001224  0.000854 -0.005402
                                 0.001759  0.000799  0.000595 -0.001621  0.000004 -0.000036  0.000050 -0.003148  0.000111 -0.000579
                                 0.001831  0.153470 -0.002393  0.078754 -0.025830  0.035456 -0.566633 -0.003607 -0.012830 -0.003851
                                 0.101949  0.007136 -0.001027 -0.001923  0.005450 -0.000028  0.005149  0.014121 -0.000282  0.010943
                                -0.016075 -0.003291 -0.001233 -0.009031 -0.000052 -0.000574 -0.002019 -0.004238  0.000267 -0.000615
                                 0.000695 -0.002888 -0.418157 -0.004502 -0.091666 -0.016190 -0.007164 -0.019539  0.204560  0.499403
                                 0.005560  0.014097 -0.047556 -0.102289 -0.001263 -0.001095  0.030332  0.019728  0.003107  0.038187
                                 0.023949  0.003917 -0.004738 -0.007429 -0.002732  0.008898  0.009279  0.000366  0.002482 -0.000413
                                -0.001973 -0.000260 -0.000685

  12.1   2    -0.8254  -17.4767  0.000857 -0.022989  0.002902  0.011180 -0.003555  0.201109  0.065693  0.000841  0.012695 -0.033915
                                -0.031818  0.008023 -0.000574 -0.005189 -0.012701  0.002210 -0.015300 -0.018173  0.004266 -0.006330
                                 0.012027 -0.001954  0.008967  0.006397  0.000208 -0.002823  0.010672  0.006990  0.000901 -0.004902
                                -0.000108  0.013882  0.000406  0.009513  0.014055  0.054249  0.010233 -0.007732 -0.000131 -0.019370
                                 0.005509 -0.007445 -0.001954 -0.000505 -0.001927  0.000347 -0.001749  0.001933 -0.000152 -0.005309
                                 0.001611  0.000092 -0.000200  0.000024 -0.000007  0.000133 -0.001221  0.000664  0.000001  0.000122
                                 0.000521  0.107215  0.000836  0.075840  0.037476  0.621385  0.008315  0.005079  0.005480 -0.039846
                                -0.039603  0.003094 -0.032949  0.001705 -0.000083 -0.003634  0.011111 -0.012697 -0.010802  0.012312
                                -0.013571 -0.005077  0.007640 -0.000362  0.000553  0.001156  0.000299 -0.006791  0.000747  0.002012
                                -0.000401 -0.001528  0.035213  0.002170 -0.018134 -0.046836 -0.003986 -0.002945  0.559497 -0.319925
                                 0.003620  0.005007 -0.075761  0.019176 -0.007315 -0.003960 -0.024648  0.020280  0.006568 -0.020555
                                 0.021053  0.006492 -0.001855 -0.009705 -0.003589  0.006598 -0.008702  0.000693  0.003784 -0.000920
                                -0.000421 -0.000103 -0.000714

  13.1   2    -0.6236  -16.7202  0.000331  0.131125 -0.001357  0.002591  0.012110 -0.300509 -0.120539  0.003052 -0.007386  0.054892
                                 0.009857  0.005598 -0.011500  0.007201  0.007598 -0.001690  0.013296  0.014956 -0.003135  0.015881
                                 0.002862  0.001018 -0.008919 -0.007702 -0.000398  0.003377 -0.006695 -0.002123 -0.000526  0.002407
                                -0.000150 -0.076642 -0.000276 -0.018980 -0.018617 -0.135501 -0.082376  0.006592  0.002710  0.002931
                                 0.003753 -0.007770  0.007348  0.002500  0.003852 -0.000845  0.003589  0.005059 -0.000997  0.001015
                                 0.005918 -0.002320 -0.000859 -0.000670 -0.000064  0.000250  0.000030  0.000920 -0.000040  0.000227
                                -0.001556 -0.111069 -0.000024 -0.099050 -0.056319 -0.497167  0.054127 -0.004108 -0.003653 -0.002872
                                 0.003653 -0.016430  0.044669  0.002015 -0.007385  0.001614 -0.002045 -0.010798  0.004252  0.001986
                                 0.009425  0.002169 -0.004157 -0.001184 -0.000243  0.000740  0.000771  0.002443  0.000040 -0.000108
                                 0.000404  0.003041  0.015132 -0.000625 -0.000055  0.039054  0.008021  0.001227  0.809849 -0.131133
                                -0.002631 -0.002142  0.003847 -0.001723  0.012656  0.003113  0.008975 -0.010301 -0.003295  0.005309
                                -0.010132 -0.002820 -0.002830  0.005389  0.001727 -0.001920  0.002056 -0.000167 -0.001050 -0.001635
                                 0.003148 -0.000205 -0.001280

  14.1   2    -0.5537  -11.9627 -0.002981 -0.400059 -0.000214  0.027379 -0.031897  0.019839 -0.357248 -0.005526  0.028463 -0.007553
                                 0.079466  0.000906  0.000523 -0.003614  0.002298 -0.000482  0.009818 -0.002206  0.000176 -0.011156
                                 0.002541  0.000044  0.003167 -0.010105 -0.000071 -0.000019 -0.004214  0.004767  0.000038  0.000380
                                 0.005189  0.544818  0.002803  0.181043  0.091140 -0.164591  0.671407  0.008687 -0.037303  0.014908
                                -0.066246 -0.001497  0.000490 -0.012688  0.005331 -0.000658 -0.015598  0.006290 -0.000704 -0.004314
                                 0.002048 -0.000263 -0.001486  0.002537 -0.000070  0.000428 -0.000980  0.002339 -0.000014  0.000135
                                -0.000809  0.060180 -0.000142 -0.001717 -0.014966 -0.066071  0.085835 -0.000243 -0.004426  0.007046
                                 0.000417  0.002807 -0.018296  0.000065 -0.001521  0.000259 -0.000083 -0.002906  0.000588  0.000858
                                -0.004969 -0.001165 -0.000597  0.001039 -0.000053  0.000099  0.000049  0.002419  0.000082  0.000455
                                -0.000213 -0.001260 -0.002865  0.000095  0.019570  0.003066  0.001035  0.001669  0.055143 -0.066807
                                -0.000270 -0.002151  0.000890  0.014750 -0.000805  0.002974  0.001248 -0.004080 -0.000816 -0.000993
                                -0.002867 -0.000765  0.002735 -0.001155 -0.001289 -0.000786 -0.000084 -0.000012 -0.000141 -0.000942
                                 0.000999 -0.000106 -0.000777

  15.1   2    -0.4166  -12.9725  0.000017  0.051728 -0.001279 -0.000743 -0.006802  0.481427  0.021625  0.000611  0.002774 -0.043703
                                 0.000497  0.008179 -0.005636  0.009713  0.022113 -0.004705  0.020997  0.037377 -0.008726  0.002918
                                -0.000130 -0.002312  0.008799  0.002575  0.000381 -0.003062 -0.006717 -0.004596  0.000140  0.001520
                                 0.000327  0.006995  0.000238  0.006640 -0.007172  0.614041  0.155348 -0.006936 -0.003282  0.026415
                                 0.003851  0.032628  0.014506 -0.005280 -0.012830  0.002613 -0.010351 -0.025825  0.005496 -0.006833
                                -0.015520  0.003645  0.004508  0.002672  0.000328 -0.001546  0.000339  0.000857  0.000169 -0.000438
                                -0.001605 -0.095335 -0.000044 -0.095072 -0.111718 -0.354239  0.048657 -0.010329 -0.002864 -0.035761
                                 0.030088 -0.026669  0.050889  0.003645  0.002863  0.000498  0.000783  0.006517  0.003588 -0.000189
                                 0.007386 -0.001136 -0.002335  0.000798 -0.000218 -0.000670 -0.004556  0.002499  0.000156 -0.000261
                                 0.000185  0.002038  0.036178 -0.000663  0.032979  0.078440  0.005965  0.004373  0.223535  0.113352
                                -0.003580 -0.005415  0.031545  0.012568  0.019516  0.008168  0.013497 -0.014113 -0.004785  0.009145
                                -0.014965 -0.005115  0.004087 -0.000607 -0.000716 -0.002621  0.004329 -0.000375 -0.001727 -0.000876
                                 0.000926  0.000195 -0.000452

  16.1   +    -0.3632  -16.5563  0.006252  0.217002  0.010404 -0.000890 -0.000300  0.103488 -0.217934  0.002655  0.026890  0.000862
                                 0.081408  0.002451 -0.022715 -0.005623 -0.012248  0.003077 -0.036662 -0.019790  0.004471 -0.037139
                                -0.008795  0.004027  0.003330  0.003482  0.000321 -0.001802  0.002879  0.023246 -0.000073 -0.001348
                                -0.001926 -0.039648  0.000169  0.033238  0.061268 -0.133918  0.060316 -0.002508 -0.007292 -0.016676
                                -0.017746 -0.007213 -0.000173 -0.001674  0.002076 -0.000326 -0.001760  0.006715 -0.001223  0.002578
                                 0.004318 -0.001432 -0.001412  0.000584 -0.000066  0.000318 -0.002274  0.002392 -0.000085  0.000637
                                -0.014077 -0.461271 -0.000163 -0.239357 -0.229830  0.203426  0.416096  0.012110  0.048737  0.002663
                                -0.023282  0.003067 -0.053471  0.008532  0.000011 -0.000832  0.018793 -0.008386 -0.002027  0.006325
                                 0.005413  0.003853  0.001483  0.005445  0.000154  0.000226 -0.003166 -0.009297 -0.000121  0.001128
                                 0.000495  0.015845  0.301546  0.009271  0.133361  0.086502  0.005508  0.024808  0.189108  0.824592
                                -0.002576 -0.013317  0.031942  0.170959  0.019306  0.115613 -0.112424 -0.049388 -0.005461 -0.101212
                                -0.042214 -0.004399 -0.066091 -0.032390 -0.003065 -0.005478 -0.009569 -0.000060 -0.000893 -0.000430
                                 0.005016  0.000008 -0.000264

                                   1 2py     1 2py     1 2py     1 2py     1 3d2-    1 3d1-    1 3d2-    1 3d1-    1 3d2-    1 3d1- 
                                   1 4f1-    1 4f2-    1 4f3-    1 4f1-    1 4f2-    1 4f3-    2 2py     2 2py     2 2py     2 2py  
                                   2 3d2-    2 3d1-    2 3d2-    2 3d1-    2 3d2-    2 3d1-    2 4f1-    2 4f2-    2 4f3-    2 4f1- 
                                   2 4f2-    2 4f3-    3 2py     3 2py     3 2py     3 2py     3 3d2-    3 3d1-    3 3d2-    3 3d1- 
                                   3 3d2-    3 3d1-    3 4f1-    3 4f2-    3 4f3-    3 4f1-    3 4f2-    3 4f3-    4 2py     4 2py  
                                   4 2py     4 2py     4 2py     4 3d2-    4 3d1-    4 3d2-    4 3d1-    4 3d2-    4 3d1-    4 4f1- 
                                   4 4f2-    4 4f3-    4 4f1-    4 4f2-    4 4f3- 

   1.2   2    -9.7052  -53.0555 -0.000229  0.000772  0.000826  0.000748 -0.000073 -0.000013  0.000294 -0.000396  0.000240  0.000099
                                 0.000128  0.000022 -0.000034 -0.000593 -0.000406  0.000129 -0.000111  0.000298  0.000110 -0.000556
                                -0.000042  0.000011  0.000215 -0.000044  0.000023  0.000099 -0.000016  0.000023 -0.000004 -0.000081
                                -0.000107  0.000029  0.000071  0.000221  0.001695 -0.000686  0.000008 -0.000004 -0.000145 -0.000409
                                -0.000850 -0.002641 -0.000075 -0.000031 -0.000029  0.000266  0.000211  0.000111  0.999846 -0.001423
                                 0.000032 -0.001082 -0.000303 -0.000372 -0.001574  0.000303  0.001241 -0.000249 -0.000780  0.000374
                                 0.000174  0.000025 -0.000946 -0.000413 -0.000057

   2.2   2    -0.8254  -17.5000  0.209789 -0.000654 -0.047897  0.005623  0.002106 -0.013382  0.004688 -0.021633 -0.002124  0.010849
                                 0.010249 -0.002624  0.000120  0.010297 -0.005057  0.001000  0.054452 -0.006475 -0.014559 -0.007764
                                 0.000320 -0.001924  0.000222  0.000287  0.000915 -0.001787 -0.000066  0.000139 -0.000014 -0.000303
                                -0.000269  0.000067  0.624282  0.008048 -0.025274  0.007817 -0.003599  0.000159 -0.011215 -0.011897
                                -0.006333 -0.016162  0.008311  0.001154  0.000554  0.002720  0.001866  0.000803 -0.002429  0.646789
                                 0.001289 -0.080532 -0.003986  0.008280  0.031350  0.007485  0.028571 -0.003164 -0.008032  0.010820
                                 0.004627  0.000780  0.000440 -0.000119  0.000015

   3.2   2    -0.6193  -16.6130 -0.354904  0.005113  0.076814  0.011820 -0.002072  0.010462 -0.002461  0.014569  0.001949  0.002595
                                -0.012957  0.004243 -0.000497 -0.008094  0.001642 -0.000302 -0.174703  0.009276  0.005944 -0.010158
                                -0.001079  0.005135 -0.000656  0.005540 -0.002441  0.007852 -0.001103  0.000326 -0.000082  0.000466
                                -0.000146  0.000037 -0.513158 -0.006672 -0.018853 -0.026069  0.001650 -0.007962  0.004634 -0.011478
                                 0.002404  0.003145 -0.004312  0.000784 -0.000261  0.000135 -0.000085  0.000051  0.007231  0.797330
                                -0.001702  0.004175  0.008517 -0.004388 -0.015213 -0.003370 -0.012947  0.001051  0.003988 -0.003146
                                -0.001342 -0.000192 -0.003471 -0.001943 -0.000364

   4.2   2    -0.4075  -12.9620  0.427554  0.005836 -0.019324  0.016315 -0.005322  0.026741 -0.009532  0.044273 -0.001723  0.002677
                                 0.007947 -0.002836  0.000385 -0.006439  0.000951  0.000227  0.657842 -0.007690  0.023644  0.032632
                                 0.002628 -0.013661  0.005728 -0.027376  0.002705 -0.013831  0.005254 -0.001667  0.000347  0.000553
                                -0.000460  0.000173 -0.400988 -0.013768 -0.060697 -0.047750  0.000563  0.002002  0.004381  0.005012
                                 0.000123  0.008555 -0.002540 -0.000579 -0.000249 -0.006776 -0.000375  0.000142  0.006045  0.225133
                                -0.003101  0.032121  0.017510 -0.005996 -0.021493 -0.006216 -0.020598 -0.001225 -0.004622 -0.005108
                                -0.002341 -0.000460 -0.002230 -0.000640  0.000214


 **********************************************************************************************************************************
 DATASETS  * FILE   NREC   LENGTH (MB)   RECORD NAMES
              1      19      319.74       500      610      700      900      950      970     1000      129      960     1100   
                                          VAR    BASINP    GEOM    SYMINP    ZMAT    AOBASIS   BASIS     P2S    ABASIS      S 
                                         1400     1410     1200     1210     1080     1600     1650     1300     1700   
                                           T        V       H0       H01     AOSYM     SMH    MOLCAS    ERIS     OPER   

              2       3        0.90       700     1000     2100   
                                         GEOM     BASIS     RHF  

 PROGRAMS   *        TOTAL        HF       INT
 CPU TIMES  *        13.86      6.02      7.80
 REAL TIME  *        21.74 SEC
 DISK USED  *         1.63 GB      
 GA USED    *         0.00 MB       (max)       0.00 MB       (current)
 **********************************************************************************************************************************


1PROGRAM * CCSD (Restricted open-shell coupled cluster)     Authors: C. Hampel, H.-J. Werner, 1991, M. Deegan, P.J. Knowles, 1992


 Convergence thresholds:  THRVAR = 1.00D-08  THRDEN = 1.00D-06

 CCSD(T)     terms to be evaluated (factor= 1.000)


 Number of core orbitals:           8 (   7   1 )
 Number of closed-shell orbitals:  11 (   8   3 )
 Number of active  orbitals:        1 (   1   0 )
 Number of external orbitals:     168 ( 107  61 )

 Memory could be reduced to 55.70 Mwords without degradation in triples

 Number of N-1 electron functions:              23
 Number of N-2 electron functions:             253
 Number of singly external CSFs:              2202
 Number of doubly external CSFs:           2786709
 Total number of CSFs:                     2788911

 Molecular orbitals read from record     2100.2  Type=RHF/CANONICAL (state 1.1)

 Integral transformation finished. Total CPU:   3.28 sec, npass=  1  Memory used:  13.76 MW

 Starting RMP2 calculation

 Wavefunction is spin-projected

 ITER.      SQ.NORM     CORR.ENERGY   TOTAL ENERGY   ENERGY CHANGE        DEN1      VAR(S)    VAR(P)  DIIS     TIME
   1      1.24335543    -0.81502555  -694.39943573    -0.81502555    -0.00294227  0.80D-05  0.13D-02  1  1     3.85
   2      1.24648413    -0.81820426  -694.40261444    -0.00317870    -0.00000689  0.69D-07  0.40D-05  2  2     4.12
   3      1.24661091    -0.81827492  -694.40268510    -0.00007066    -0.00000002  0.18D-08  0.12D-07  3  3     4.40
   4      1.24661259    -0.81827513  -694.40268531    -0.00000021     0.00000000  0.46D-10  0.43D-10  4  4     4.69

 Norm of t1 vector:      0.03868526      S-energy:    -0.00354996      T1 diagnostic:  0.00015606
 Norm of t2 vector:      0.49509195      P-energy:    -0.81472517
                                         Alpha-Beta:  -0.59546097
                                         Alpha-Alpha: -0.11643313
                                         Beta-Beta:   -0.10283107

 Spin contamination <S**2-Sz**2-Sz>     0.00000000
  Reference energy                   -693.584410180341
  RHF-RMP2 correlation energy          -0.818275126387
 !RHF-RMP2 energy                    -694.402685306727
 (NB above energy spin projected)

 Starting RCCSD calculation

 ITER.      SQ.NORM     CORR.ENERGY   TOTAL ENERGY   ENERGY CHANGE        DEN1      VAR(S)    VAR(P)  DIIS     TIME
   1      1.22698462    -0.79294245  -694.37735263    -0.79294245    -0.02317169  0.50D-02  0.44D-02  1  1    23.73
   2      1.24499602    -0.81313336  -694.39754354    -0.02019091    -0.00211727  0.15D-03  0.75D-03  2  2    42.70
   3      1.25206733    -0.81614609  -694.40055627    -0.00301272    -0.00025187  0.11D-03  0.64D-04  3  3    61.70
   4      1.25595608    -0.81748779  -694.40189798    -0.00134171    -0.00003538  0.11D-04  0.11D-04  4  4    80.70
   5      1.25726346    -0.81773015  -694.40214033    -0.00024236    -0.00000609  0.36D-05  0.15D-05  5  5    99.69
   6      1.25778929    -0.81779546  -694.40220564    -0.00006530    -0.00000110  0.78D-06  0.24D-06  6  6   118.71
   7      1.25792625    -0.81780994  -694.40222012    -0.00001448    -0.00000034  0.27D-06  0.60D-07  6  2   137.77
   8      1.25799773    -0.81781532  -694.40222550    -0.00000538    -0.00000008  0.50D-07  0.18D-07  6  1   156.80
   9      1.25802795    -0.81781681  -694.40222699    -0.00000149    -0.00000001  0.90D-08  0.35D-08  6  3   175.84
  10      1.25803934    -0.81781834  -694.40222852    -0.00000153     0.00000000  0.22D-08  0.51D-09  6  4   194.90
  11      1.25803672    -0.81781592  -694.40222610     0.00000243     0.00000000  0.40D-09  0.15D-09  6  6   213.93
  12      1.25803700    -0.81781576  -694.40222594     0.00000015     0.00000000  0.91D-10  0.18D-10  6  5   232.92

 Norm of t1 vector:      0.11315518      S-energy:    -0.00373519      T1 diagnostic:  0.01547331
                                                                       D1 diagnostic:  0.03873449
 Norm of t2 vector:      0.49520996      P-energy:    -0.81408057
                                         Alpha-Beta:  -0.62289595
                                         Alpha-Alpha: -0.10187795
                                         Beta-Beta:   -0.08930667

 Doubles amplitudes (print threshold =  0.500E-01):

         I         J         SYM. A    SYM. B    A         B      T(IJ, AB) [Alpha-Beta]

        12        12         2         2         5         5     -0.05602367

 Spin contamination <S**2-Sz**2-Sz>     0.00000000

 Memory could be reduced to 60.25 Mwords without degradation in triples
 

 RESULTS
 =======

  Reference energy                   -693.584410180341
  RCCSD singles energy                 -0.003735194691
  RCCSD pair energy                    -0.814080568677
  RCCSD correlation energy             -0.817815763368
  Triples (T) contribution             -0.041207003415
  Total correlation energy             -0.859022766783
 
  RHF-RCCSD energy                   -694.402225943709
  RHF-RCCSD[T] energy                -694.445099497140
  RHF-RCCSD-T energy                 -694.442720892760
 !RHF-RCCSD(T) energy                -694.443432947124

 Program statistics:

 Available memory in ccsd:               999998628
 Min. memory needed in ccsd:               8082079
 Max. memory used in ccsd:                11529320
 Max. memory used in cckext:              10530542 (12 integral passes)
 Max. memory used in cckint:              13759568 ( 1 integral passes)



 **********************************************************************************************************************************
 DATASETS  * FILE   NREC   LENGTH (MB)   RECORD NAMES
              1      19      319.74       500      610      700      900      950      970     1000      129      960     1100   
                                          VAR    BASINP    GEOM    SYMINP    ZMAT    AOBASIS   BASIS     P2S    ABASIS      S 
                                         1400     1410     1200     1210     1080     1600     1650     1300     1700   
                                           T        V       H0       H01     AOSYM     SMH    MOLCAS    ERIS     OPER   

              2       3        0.90       700     1000     2100   
                                         GEOM     BASIS     RHF  

 PROGRAMS   *        TOTAL  RCCSD(T)        HF       INT
 CPU TIMES  *       621.27    607.41      6.02      7.80
 REAL TIME  *       637.56 SEC
 DISK USED  *         1.92 GB      
 GA USED    *         0.00 MB       (max)       0.00 MB       (current)
 **********************************************************************************************************************************
 SETTING E_NCOAR(1)     =      -694.44343295  AU                              

 *** cp calculation for NCO

 Dummy atoms: AR


 Recomputing one-electron integrals since nuclear charges changed

1PROGRAM * SEWARD (Integral evaluation for generally contracted gaussian basis sets)     Author: Roland Lindh, 1990

 Geometry written to block  1 of record 700

 Orientation using atomic masses  
 Molecule type: Asymmetric top
 Symmetry elements: Y
 Rotational constants:       2.9886169      2.9503070    230.1583409 GHz  (calculated with average atomic masses)

 Point group  Cs  



 ATOMIC COORDINATES

 NR  ATOM    CHARGE       X              Y              Z

   1  C       6.00    0.136049884    0.000000000    2.366042008
   2  N       7.00   -0.319051184    0.000000000    4.649252854
   3  O       8.00    0.570266389    0.000000000    0.187607585
   4  AR      0.00   -0.157433689    0.000000000   -2.416662394

 Bond lengths in Bohr (Angstrom)

 1-2  2.328125586  1-3  2.221288030  1-4  4.791700534  3-4  2.704028388
     (1.231991000)     (1.175455000)     (2.535658715)     (1.430910195)

 Bond angles

  1-3-4  153.11552642   1-4-3   12.10026388   2-1-3  180.00000000   2-1-4  165.21579030

  3-1-4   14.78420970


 BASIS DATA

   Nr Sym  Nuc  Type         Exponents   Contraction coefficients

   1.1 A'    1  1s         8236.000000     0.000531   -0.000113    0.000000    0.000000
   2.1 A'                  1235.000000     0.004108   -0.000878    0.000000    0.000000
   3.1 A'                   280.800000     0.021087   -0.004540    0.000000    0.000000
   4.1 A'                    79.270000     0.081853   -0.018133    0.000000    0.000000
                             25.590000     0.234817   -0.055760    0.000000    0.000000
                              8.997000     0.434401   -0.126895    0.000000    0.000000
                              3.319000     0.346129   -0.170352    0.000000    0.000000
                              0.905900     0.039378    0.140382    1.000000    0.000000
                              0.364300    -0.008983    0.598684    0.000000    0.000000
                              0.128500     0.002385    0.395389    0.000000    1.000000
   5.1 A'    1  1s            0.044020     1.000000
   6.1 A'    1  2px          18.710000     0.014031
                              4.133000     0.086866
                              1.200000     0.290216
                              0.382700     0.501008
                              0.120900     0.343406
   7.1 A'    1  2pz          18.710000     0.014031
                              4.133000     0.086866
                              1.200000     0.290216
                              0.382700     0.501008
                              0.120900     0.343406
   8.1 A'    1  2px          18.710000     0.000000
                              4.133000     0.000000
                              1.200000     0.000000
                              0.382700     1.000000
                              0.120900     0.000000
   9.1 A'    1  2pz          18.710000     0.000000
                              4.133000     0.000000
                              1.200000     0.000000
                              0.382700     1.000000
                              0.120900     0.000000
  10.1 A'    1  2px          18.710000     0.000000
                              4.133000     0.000000
                              1.200000     0.000000
                              0.382700     0.000000
                              0.120900     1.000000
  11.1 A'    1  2pz          18.710000     0.000000
                              4.133000     0.000000
                              1.200000     0.000000
                              0.382700     0.000000
                              0.120900     1.000000
  12.1 A'    1  2px           0.035690     1.000000
  13.1 A'    1  2pz           0.035690     1.000000
  14.1 A'    1  3d0           1.097000     1.000000
  15.1 A'    1  3d1+          1.097000     1.000000
  16.1 A'    1  3d2+          1.097000     1.000000
  17.1 A'    1  3d0           0.318000     1.000000
  18.1 A'    1  3d1+          0.318000     1.000000
  19.1 A'    1  3d2+          0.318000     1.000000
  20.1 A'    1  3d0           0.100000     1.000000
  21.1 A'    1  3d1+          0.100000     1.000000
  22.1 A'    1  3d2+          0.100000     1.000000
  23.1 A'    1  4f1+          0.761000     1.000000
  24.1 A'    1  4f0           0.761000     1.000000
  25.1 A'    1  4f3+          0.761000     1.000000
  26.1 A'    1  4f2+          0.761000     1.000000
  27.1 A'    1  4f1+          0.268000     1.000000
  28.1 A'    1  4f0           0.268000     1.000000
  29.1 A'    1  4f3+          0.268000     1.000000
  30.1 A'    1  4f2+          0.268000     1.000000
  31.1 A'    2  1s        11420.000000     0.000523   -0.000115    0.000000    0.000000
  32.1 A'                  1712.000000     0.004045   -0.000895    0.000000    0.000000
  33.1 A'                   389.300000     0.020775   -0.004624    0.000000    0.000000
  34.1 A'                   110.000000     0.080727   -0.018528    0.000000    0.000000
                             35.570000     0.233074   -0.057339    0.000000    0.000000
                             12.540000     0.433501   -0.132076    0.000000    0.000000
                              4.644000     0.347472   -0.172510    0.000000    0.000000
                              1.293000     0.041262    0.151814    1.000000    0.000000
                              0.511800    -0.008508    0.599944    0.000000    0.000000
                              0.178700     0.002384    0.387462    0.000000    1.000000
  35.1 A'    2  1s            0.057600     1.000000
  36.1 A'    2  2px          26.630000     0.014670
                              5.948000     0.091764
                              1.742000     0.298683
                              0.555000     0.498487
                              0.172500     0.337023
  37.1 A'    2  2pz          26.630000     0.014670
                              5.948000     0.091764
                              1.742000     0.298683
                              0.555000     0.498487
                              0.172500     0.337023
  38.1 A'    2  2px          26.630000     0.000000
                              5.948000     0.000000
                              1.742000     0.000000
                              0.555000     1.000000
                              0.172500     0.000000
  39.1 A'    2  2pz          26.630000     0.000000
                              5.948000     0.000000
                              1.742000     0.000000
                              0.555000     1.000000
                              0.172500     0.000000
  40.1 A'    2  2px          26.630000     0.000000
[...]
                                -0.000196  0.998826 -0.001963  0.000665  0.003316 -0.001135 -0.000003 -0.000075  0.000011 -0.000146
                                 0.000004  0.000110  0.000174  0.001264 -0.000122 -0.000178 -0.000013  0.000002  0.000003  0.000022
                                 0.000009  0.000000  0.000481  0.000135 -0.000005 -0.000015 -0.000036  0.000001  0.000000  0.000028
                                 0.000070 -0.000004 -0.000005

   3.1   2    -9.5721  -47.7331 -0.000043 -0.000124  0.000260  0.002708  0.000402  0.000012 -0.000279 -0.000088  0.001725  0.001134
                                -0.003434  0.000763 -0.000672 -0.000022 -0.000025 -0.000023  0.000506  0.000088 -0.000068  0.000605
                                 0.000364  0.000055  0.000008  0.000137 -0.000021  0.000056  0.000063 -0.000352  0.000003 -0.000117
                                -0.000036 -0.000118  0.000085 -0.000418 -0.000226  0.000017 -0.000109 -0.000091  0.000513 -0.000900
                                 0.001377 -0.000665  0.000458 -0.000003 -0.000013 -0.000010 -0.000304  0.000257  0.000015 -0.000761
                                 0.000537 -0.000126 -0.000006 -0.000006 -0.000005  0.000011 -0.000170  0.000133  0.000011  0.000025
                                -0.000038 -0.000126 -0.000010 -0.000965 -0.001101 -0.000029  0.000001 -0.000014  0.000161  0.000573
                                -0.000277 -0.000484  0.001023  0.000005  0.000015  0.000011  0.000127 -0.000171 -0.000052  0.001328
                                -0.000820 -0.000147 -0.000051  0.000063 -0.000008 -0.000021  0.000333 -0.000391  0.000032  0.000206
                                 0.000007  0.000041  0.000075  0.000005 -0.000931  0.000106  0.970936 -0.236856 -0.001835  0.000076
                                 0.000936 -0.000083  0.000802 -0.000861 -0.000461  0.000136  0.000229 -0.000690 -0.000173 -0.000068
                                 0.000128  0.000035 -0.000250 -0.000131 -0.000061  0.000007 -0.000008  0.000005  0.000023 -0.000325
                                 0.000182 -0.000029 -0.000180

   4.1   2    -9.5720  -47.7314  0.000165  0.000599  0.000315  0.003071 -0.000054  0.000290 -0.000040 -0.000723 -0.001180 -0.000082
                                -0.001616 -0.000287  0.000104 -0.000090  0.000042  0.000059 -0.000428  0.000787 -0.000374  0.001965
                                -0.000285 -0.000149 -0.000162 -0.000054  0.000018  0.000018  0.000218  0.001337 -0.000112  0.000298
                                -0.000163 -0.000570 -0.000037 -0.000103 -0.000205  0.000080  0.000109 -0.000284 -0.000308 -0.000538
                                -0.001468  0.000106 -0.000183 -0.000015 -0.000019  0.000030  0.000274  0.000030 -0.000161  0.000327
                                 0.000074 -0.000106  0.000040 -0.000008  0.000003 -0.000027  0.000021  0.000053 -0.000021  0.000098
                                -0.000148 -0.000511 -0.000148  0.006451  0.003006  0.000113  0.000019 -0.000348  0.000308 -0.001397
                                -0.013623  0.000148  0.001414  0.000006 -0.000025 -0.000004  0.000783  0.000473  0.000051  0.003559
                                 0.003309  0.000460  0.000009  0.000071  0.000013 -0.000004 -0.000124 -0.000671 -0.000046 -0.000082
                                 0.000262  0.001728  0.003198 -0.000070 -0.016263 -0.000626  0.236166  0.968595 -0.002215 -0.009029
                                 0.001082  0.004392 -0.000558 -0.004411  0.000058 -0.000168 -0.002504 -0.001122 -0.000165  0.000335
                                 0.000150  0.000024 -0.001873 -0.000508  0.000027 -0.000045 -0.000051 -0.000004 -0.000028 -0.000458
                                -0.000676 -0.000007 -0.000069

   5.1   2    -1.2777  -14.7909 -0.000280 -0.001047 -0.000602  0.001514  0.003050  0.000160  0.000181 -0.003690  0.003159 -0.000201
                                -0.006126 -0.000454 -0.003306  0.000210  0.000185 -0.000067  0.001702  0.001520 -0.000519 -0.006566
                                 0.001867 -0.000328 -0.000410 -0.000070 -0.000050  0.000241  0.001527 -0.001251 -0.000109  0.000312
                                 0.000106  0.000389  0.000197  0.004605  0.003595  0.000135 -0.000078 -0.000595  0.000447 -0.001027
                                 0.005128  0.000860  0.001600  0.000020 -0.000031  0.000039 -0.000890  0.000338 -0.000299 -0.002443
                                 0.000651 -0.000137  0.000033  0.000066  0.000002 -0.000010  0.000058  0.000388 -0.000046  0.000141
                                 0.000162  0.000569  0.000015 -0.010985 -0.010539 -0.000075 -0.000030 -0.000063 -0.001158  0.005423
                                 0.019735  0.002308 -0.008944  0.000066  0.000000  0.000006 -0.000126  0.000246 -0.000068  0.000723
                                -0.000415 -0.000071  0.000038  0.000030  0.000013 -0.000005  0.001295  0.001731 -0.000036  0.000048
                                -0.000204 -0.001325  0.997576 -0.000146  0.014099  0.002470  0.000335  0.000949  0.001073  0.003071
                                -0.000454 -0.001257  0.002339  0.014709 -0.001355 -0.001738  0.001583  0.000727  0.000117  0.000007
                                -0.000007 -0.000007  0.005481  0.001716 -0.000021  0.000012 -0.000038  0.000011  0.000027  0.000540
                                 0.001004 -0.000026  0.000003

   6.1   2    -0.5912  -12.3749  0.000000  0.000016 -0.000073  0.012415 -0.010435  0.000235 -0.000115 -0.002145 -0.000012 -0.008081
                                -0.016673 -0.006500 -0.002782  0.000107 -0.000070  0.000044  0.000895  0.000302 -0.000878  0.000930
                                -0.004358 -0.000790  0.000202  0.000159  0.000011 -0.000048  0.000352 -0.000624 -0.000299  0.000939
                                 0.000084  0.000302  0.000072  0.000974 -0.005914  0.000156 -0.000052 -0.000622  0.000179  0.004241
                                 0.002896  0.003575  0.004507  0.000029  0.000040  0.000032 -0.000402  0.000000 -0.000314 -0.001450
                                -0.000784  0.000726 -0.000018  0.000028 -0.000010  0.000023 -0.000094  0.000025  0.000010  0.000062
                                 0.000075  0.000280  0.000559 -0.011224 -0.041737  0.000037 -0.000144 -0.000149  0.000646  0.001742
                                -0.009224  0.009871  0.037445 -0.000100 -0.000047 -0.000014 -0.001981 -0.000889 -0.000018  0.008739
                                 0.006061  0.001081 -0.000023  0.000028  0.000020  0.000000  0.000837  0.000769 -0.000105  0.000270
                                 0.000287  0.001789  0.003203 -0.000642 -0.019443  0.063179 -0.000293 -0.001091  0.193416  0.977253
                                 0.000380  0.001390  0.000222 -0.001238  0.006576  0.025368 -0.000996 -0.000508 -0.000090  0.000241
                                 0.000115  0.000019  0.002024  0.001306  0.000228  0.000058  0.000161  0.000001  0.000008  0.000336
                                 0.000487  0.000005  0.000050

   7.1   2    -0.5912  -12.3737 -0.000446 -0.001659 -0.000449  0.017301  0.003130 -0.000034  0.000070 -0.000406  0.003450  0.006483
                                -0.020446  0.004804 -0.005443 -0.000026 -0.000071 -0.000023  0.003798  0.000761  0.000046  0.007411
                                 0.001857  0.000170 -0.000007  0.000084 -0.000006  0.000007 -0.000107 -0.000277  0.000220 -0.001148
                                -0.000192 -0.000675  0.000107 -0.002717 -0.003423  0.000057 -0.000190 -0.000354  0.001277 -0.005340
                                 0.004757 -0.004964  0.003817  0.000016 -0.000072 -0.000040 -0.000716  0.001016  0.000240 -0.003986
                                 0.003029 -0.000591  0.000028 -0.000103 -0.000005 -0.000001 -0.000796  0.000785  0.000060 -0.000022
                                -0.000135 -0.000461  0.000037 -0.011765 -0.007265 -0.000072  0.000048  0.000488 -0.000384  0.001464
                                -0.003255 -0.002084  0.013266  0.000007  0.000007  0.000036 -0.000237 -0.000046 -0.000257  0.008672
                                -0.002460 -0.001214 -0.000111  0.000085 -0.000040 -0.000046 -0.000015  0.000175  0.000173 -0.000054
                                 0.000068  0.000433  0.000788 -0.000079 -0.007390  0.005678  0.001135 -0.000795  0.984264 -0.196890
                                -0.001596  0.001045 -0.011212 -0.002305  0.012228 -0.001459  0.000495 -0.001408 -0.000335 -0.000119
                                 0.000266  0.000066 -0.001692 -0.000643 -0.000157  0.000177 -0.000081  0.000017  0.000094 -0.000659
                                 0.000430 -0.000057 -0.000327

                                   1 2py     1 2py     1 2py     1 2py     1 3d2-    1 3d1-    1 3d2-    1 3d1-    1 3d2-    1 3d1- 
                                   1 4f1-    1 4f2-    1 4f3-    1 4f1-    1 4f2-    1 4f3-    2 2py     2 2py     2 2py     2 2py  
                                   2 3d2-    2 3d1-    2 3d2-    2 3d1-    2 3d2-    2 3d1-    2 4f1-    2 4f2-    2 4f3-    2 4f1- 
                                   2 4f2-    2 4f3-    3 2py     3 2py     3 2py     3 2py     3 3d2-    3 3d1-    3 3d2-    3 3d1- 
                                   3 3d2-    3 3d1-    3 4f1-    3 4f2-    3 4f3-    3 4f1-    3 4f2-    3 4f3-    4 2py     4 2py  
                                   4 2py     4 2py     4 2py     4 3d2-    4 3d1-    4 3d2-    4 3d1-    4 3d2-    4 3d1-    4 4f1- 
                                   4 4f2-    4 4f3-    4 4f1-    4 4f2-    4 4f3- 

   1.2   2    -9.5721  -47.7332 -0.000140  0.000102  0.001219  0.001083 -0.000045  0.000054 -0.000059 -0.000067  0.000101  0.000260
                                 0.000025  0.000089 -0.000029 -0.000080 -0.000105  0.000001 -0.000046  0.000129 -0.000451 -0.000819
                                -0.000015  0.000002  0.000065 -0.000026 -0.000101  0.000294  0.000005  0.000013 -0.000006 -0.000036
                                -0.000014  0.000018 -0.000062  0.000082  0.000358 -0.000972  0.000010  0.000020 -0.000057 -0.000137
                                -0.000117 -0.000788 -0.000049 -0.000026 -0.000007  0.000464  0.000212  0.000029  0.999484 -0.001571
                                 0.000811  0.000986 -0.000552 -0.000148 -0.000578  0.000031  0.000116 -0.000015 -0.000053  0.000012
                                 0.000014  0.000001 -0.000331 -0.000145 -0.000020

   2.2   2    -0.5912  -12.3735 -0.000435  0.003114  0.009964  0.008015 -0.000043 -0.000073  0.000754 -0.001521  0.000837  0.000434
                                 0.000267 -0.000056 -0.000004 -0.000879 -0.001627  0.000375 -0.000130  0.000581 -0.002607 -0.006015
                                -0.000082  0.000002  0.000620  0.000073 -0.000331  0.002097 -0.000020  0.000026 -0.000010 -0.000445
                                -0.000286  0.000117 -0.000067  0.000498 -0.003690 -0.007008  0.000029  0.000058 -0.000173 -0.000520
                                -0.001182 -0.005912 -0.000123 -0.000049 -0.000047 -0.000558  0.000054  0.000190  0.001547  1.004633
                                -0.002177 -0.010925  0.011479 -0.000221 -0.000899  0.000048  0.000198 -0.000052 -0.000529  0.000196
                                 0.000077  0.000009 -0.000631 -0.000199 -0.000021


 **********************************************************************************************************************************
 DATASETS  * FILE   NREC   LENGTH (MB)   RECORD NAMES
              1      19      313.73       500      610      700      900      950      970     1000      129      960     1100   
                                          VAR    BASINP    GEOM    SYMINP    ZMAT    AOBASIS   BASIS     P2S    ABASIS      S 
                                         1400     1410     1200     1210     1080     1600     1650     1300     1700   
                                           T        V       H0       H01     AOSYM     SMH    MOLCAS    ERIS     OPER   

              2       5        2.39       700     1000     2100     2101     2102   
                                         GEOM     BASIS     RHF      RHF      RHF  

 PROGRAMS   *        TOTAL        HF       INT  RCCSD(T)        HF       INT  RCCSD(T)        HF       INT  RCCSD(T)        HF
 CPU TIMES  *      2544.56      1.98      0.03    199.78      3.04      0.04    606.70      6.50      7.78     31.62      2.34
 REAL TIME  *      2612.09 SEC
 DISK USED  *         1.92 GB      
 GA USED    *         0.00 MB       (max)       0.00 MB       (current)
 **********************************************************************************************************************************


1PROGRAM * CCSD (Restricted open-shell coupled cluster)     Authors: C. Hampel, H.-J. Werner, 1991, M. Deegan, P.J. Knowles, 1992


 Convergence thresholds:  THRVAR = 1.00D-08  THRDEN = 1.00D-06

 CCSD(T)     terms to be evaluated (factor= 1.000)


 Number of core orbitals:           5 (   4   1 )
 Number of closed-shell orbitals:   4 (   3   1 )
 Number of external orbitals:     179 ( 116  63 )

 Memory could be reduced to 33.39 Mwords without degradation in triples

 Number of N-1 electron functions:               8
 Number of N-2 electron functions:              28
 Number of singly external CSFs:               822
 Number of doubly external CSFs:            357532
 Total number of CSFs:                      358354

 Molecular orbitals read from record     2102.2  Type=RHF/CANONICAL (state 1.1)

 Integral transformation finished. Total CPU:   1.40 sec, npass=  1  Memory used:   5.18 MW

 Starting RMP2 calculation

 Wavefunction is spin-projected

 ITER.      SQ.NORM     CORR.ENERGY   TOTAL ENERGY   ENERGY CHANGE        DEN1      VAR(S)    VAR(P)  DIIS     TIME
   1      1.06223335    -0.21282801  -527.02632788    -0.21282801    -0.00068988  0.10D-10  0.24D-03  1  1     1.73
   2      1.06278078    -0.21356422  -527.02706408    -0.00073620    -0.00000031  0.11D-12  0.12D-06  2  2     1.76
   3      1.06278778    -0.21356933  -527.02706920    -0.00000512     0.00000000  0.13D-14  0.11D-09  3  3     1.79
   4      1.06278783    -0.21356934  -527.02706921    -0.00000001     0.00000000  0.16D-16  0.14D-12  4  4     1.81

 Norm of t1 vector:      0.00002645      S-energy:     0.00000000      T1 diagnostic:  0.00000661
 Norm of t2 vector:      0.25057499      P-energy:    -0.21356934
                                         Alpha-Beta:  -0.16063400
                                         Alpha-Alpha: -0.02646767
                                         Beta-Beta:   -0.02646767

 Spin contamination <S**2-Sz**2-Sz>     0.00000000
  Reference energy                   -526.813499869309
  RHF-RMP2 correlation energy          -0.213569341135
 !RHF-RMP2 energy                    -527.027069210444
 (NB above energy spin projected)

 Starting RCCSD calculation

 ITER.      SQ.NORM     CORR.ENERGY   TOTAL ENERGY   ENERGY CHANGE        DEN1      VAR(S)    VAR(P)  DIIS     TIME
   1      1.06940433    -0.22539107  -527.03889094    -0.22539107    -0.00461145  0.36D-04  0.12D-02  1  1     3.97
   2      1.07304507    -0.23038414  -527.04388401    -0.00499307    -0.00008078  0.19D-05  0.23D-04  2  2     6.12
   3      1.07337746    -0.23063867  -527.04413854    -0.00025453    -0.00000305  0.15D-06  0.86D-06  3  3     8.27
   4      1.07344527    -0.23068267  -527.04418254    -0.00004400    -0.00000015  0.16D-07  0.40D-07  4  4    10.41
   5      1.07345499    -0.23068752  -527.04418739    -0.00000485    -0.00000001  0.20D-08  0.17D-08  5  5    12.56
   6      1.07345581    -0.23068720  -527.04418707     0.00000032     0.00000000  0.14D-09  0.11D-09  6  6    14.70

 Norm of t1 vector:      0.00764534      S-energy:     0.00000002      T1 diagnostic:  0.00191134
                                                                       D1 diagnostic:  0.00292008
 Norm of t2 vector:      0.27091948      P-energy:    -0.23068722
                                         Alpha-Beta:  -0.17932521
                                         Alpha-Alpha: -0.02568100
                                         Beta-Beta:   -0.02568100

 Spin contamination <S**2-Sz**2-Sz>     0.00000000

 Memory could be reduced to 32.07 Mwords without degradation in triples
 

 RESULTS
 =======

  Reference energy                   -526.813499869309
  RCCSD singles energy                  0.000000015643
  RCCSD pair energy                    -0.230687216795
  RCCSD correlation energy             -0.230687201152
  Triples (T) contribution             -0.007516921561
  Total correlation energy             -0.238204122714
 
  RHF-RCCSD energy                   -527.044187070461
  RHF-RCCSD[T] energy                -527.051716568518
  RHF-RCCSD-T energy                 -527.051706980543
 !RHF-RCCSD(T) energy                -527.051703992022

 Program statistics:

 Available memory in ccsd:               999999732
 Min. memory needed in ccsd:               1447103
 Max. memory used in ccsd:                 1828065
 Max. memory used in cckext:               2330767 ( 6 integral passes)
 Max. memory used in cckint:               5179241 ( 1 integral passes)



 **********************************************************************************************************************************
 DATASETS  * FILE   NREC   LENGTH (MB)   RECORD NAMES
              1      19      313.73       500      610      700      900      950      970     1000      129      960     1100   
                                          VAR    BASINP    GEOM    SYMINP    ZMAT    AOBASIS   BASIS     P2S    ABASIS      S 
                                         1400     1410     1200     1210     1080     1600     1650     1300     1700   
                                           T        V       H0       H01     AOSYM     SMH    MOLCAS    ERIS     OPER   

              2       5        2.39       700     1000     2100     2101     2102   
                                         GEOM     BASIS     RHF      RHF      RHF  

 PROGRAMS   *        TOTAL  RCCSD(T)        HF       INT  RCCSD(T)        HF       INT  RCCSD(T)        HF       INT  RCCSD(T)
 CPU TIMES  *      2576.27     31.70      1.98      0.03    199.78      3.04      0.04    606.70      6.50      7.78     31.62
 REAL TIME  *      2644.63 SEC
 DISK USED  *         1.92 GB      
 GA USED    *         0.00 MB       (max)       0.00 MB       (current)
 **********************************************************************************************************************************
 SETTING E_AR(3)        =      -527.05170399  AU                              
 SETTING DE_CP(3)       =     51392.37890997  CM-1                            
 SETTING R(3)           =         2.70000000  ANGSTROM                        
 SETTING RARQ           =         2.80000000  ANGSTROM                        
                                                                                                                                                                                                                                                                
 Result for angle 15

      R       E_CP      E_COMPLEX        E_NCO          E_AR
    2.5   81781.58   -694.4434329   -167.7630473   -527.0530099
    2.6   64312.07   -694.5220356   -167.7627610   -527.0523019
    2.7   51392.38   -694.5800906   -167.7625475   -527.0517040
                                                  

        RCCSD(T)        HF-SCF          RCCSD(T)        HF-SCF          RCCSD(T)        HF-SCF          RCCSD(T)        HF-SCF  
   -527.05170399   -526.81349987   -167.76254752   -167.18150240   -694.58009061   -693.71852411   -527.05230190   -526.81351353
 **********************************************************************************************************************************
 Variable memory released
