
 Primary working directories    : /tmp/yuant
 Secondary working directories  : /tmp/yuant
 Wavefunction directory         : /home/yuant/wfu/
 Main file repository           : /tmp/yuant/

 ARCHNAME  : Linux/x86_64
 FC        : /opt/intel/compilerpro-12.0.1.107/bin/intel64/ifort
 FCVERSION : 12.0.0
 BLASLIB   : 
 id        : scu

 Nodes     nprocs
 linux-en55    1
 ga_uses_ma=false, calling ma_init with nominal heap.
 GA-space will be limited to   8.0 MW (determined by -G option)

 Using customized tuning parameters: mindgm=4; mindgv=4; mindgc=1; mindgr=1; noblas=0; mincuda=1000; minvec=7
 default implementation of scratch files=df  

 MEMORY,1000,M
 print, basis, orbitals
 angstrom
 geometry={
 q1
 q2,q1,rqq
 C,q1,rcq1,q2,acq2
 N,q1,rnq1,q2,anq2,C,dnc
 O,q1,roq1,q2,aoq2,C,doc
 Ar,q1,rarq,O,aaro,q2,darq
 }
 rqq=1.0
 rcq1=0.036898
 rnq1=1.268889
 roq1=1.138557
 acq2=90
 anq2=90
 aoq2=90
 dnc=0
 doc=180
 darq=180                                                                        ! variables always fixed
  
 rarq=2.5                                                                        ! scan
 aaro=30                                                                         ! fixed here
  
 basis=aug-cc-pvtz
  
 do i=1,2
 text,calculation for complex
 {hf
 open,16.1
 wf,39,1,1                                                                       ! 1: A' state in Cs group
 }
 rccsd(t)
 e_NCOAr(i)=energy
  
 text,cp calculation for NCO
 dummy,Ar
 {hf
 open,9.1
 wf,21,1,1
 }
 rccsd(t)
 e_NCO(i)=energy
  
 text, cp calculation for Ar
 dummy,N,C,O
 hf
 rccsd(t)
 e_Ar(i)=energy
  
 de_cp(i)=(e_NCOAr(i)-e_NCO(i)-e_Ar(i))*tocm
 r(i)=rarq
 rarq=rarq+0.1
 enddo
  
 {table,r,de_cp,e_NCOAr,e_NCO,e_Ar
 head,R,E_cp,E_complex,E_NCO,E_Ar
 save,PES_30-no1-2.tab
 title,Result for angle 30
 }

 Variables initialized (664), CPU time= 0.00 sec
 Commands  initialized (462), CPU time= 0.00 sec, 486 directives.
 Default parameters read. Elapsed time= 0.02 sec

 Checking input...
 Passed
1


                                         ***  PROGRAM SYSTEM MOLPRO  ***
                         Copyright, University College Cardiff Consultants Limited, 2008

                                    Version 2010.1 linked 26 Jan 2011 12:51:57


 **********************************************************************************************************************************
 LABEL *                                                                                 
 Linux-3.4.6-2.10-desktop/linux-en55(x86_64) 64 bit mpp version                          DATE: 05-Dec-18          TIME: 03:03:45  
 **********************************************************************************************************************************

 Patch level:      13
 **********************************************************************************************************************************

 ZUNIT=ANG
 
 SETTING RQQ            =         1.00000000                                  
 SETTING RCQ1           =         0.03689800                                  
 SETTING RNQ1           =         1.26888900                                  
 SETTING ROQ1           =         1.13855700                                  
 SETTING ACQ2           =        90.00000000                                  
 SETTING ANQ2           =        90.00000000                                  
 SETTING AOQ2           =        90.00000000                                  
 SETTING DNC            =         0.00000000                                  
 SETTING DOC            =       180.00000000                                  
 SETTING DARQ           =       180.00000000                                  
 SETTING RARQ           =         2.50000000                                  
 SETTING AARO           =        30.00000000                                  

 Variable memory set to 1000000000 words,  buffer space   230000 words

 SETTING BASIS          =    AUG-CC-PVTZ

 DO I                   =         1.00000000   

 *** calculation for complex


 Recomputing integrals since basis changed


 Using spherical harmonics

 Library entry C      S aug-cc-pVTZ          selected for orbital group  1
 Library entry C      P aug-cc-pVTZ          selected for orbital group  1
 Library entry C      D aug-cc-pVTZ          selected for orbital group  1
 Library entry C      F aug-cc-pVTZ          selected for orbital group  1
 Library entry N      S aug-cc-pVTZ          selected for orbital group  2
 Library entry N      P aug-cc-pVTZ          selected for orbital group  2
 Library entry N      D aug-cc-pVTZ          selected for orbital group  2
 Library entry N      F aug-cc-pVTZ          selected for orbital group  2
 Library entry O      S aug-cc-pVTZ          selected for orbital group  3
 Library entry O      P aug-cc-pVTZ          selected for orbital group  3
 Library entry O      D aug-cc-pVTZ          selected for orbital group  3
 Library entry O      F aug-cc-pVTZ          selected for orbital group  3
 Library entry AR     S aug-cc-pVTZ          selected for orbital group  4
 Library entry AR     P aug-cc-pVTZ          selected for orbital group  4
 Library entry AR     D aug-cc-pVTZ          selected for orbital group  4
 Library entry AR     F aug-cc-pVTZ          selected for orbital group  4

1PROGRAM * SEWARD (Integral evaluation for generally contracted gaussian basis sets)     Author: Roland Lindh, 1990

 Geometry written to block  1 of record 700

 Orientation using atomic masses  
 Molecule type: Asymmetric top
 Symmetry elements: Y
 Rotational constants:       3.1045927      2.9503066     59.3669551 GHz  (calculated with average atomic masses)

 Point group  Cs  



 ATOMIC COORDINATES

 NR  ATOM    CHARGE       X              Y              Z

   1  C       6.00    0.254809924    0.000000000    2.349395124
   2  N       7.00   -0.653540459    0.000000000    4.493006173
   3  O       8.00    1.121476158    0.000000000    0.304154270
   4  AR     18.00   -0.296623673    0.000000000   -2.403551122

 Bond lengths in Bohr (Angstrom)

 1-2  2.328125586  1-3  2.221288030  1-4  4.784827796  3-4  3.056579072
     (1.231991000)     (1.175455000)     (2.532021818)     (1.617471982)

 Bond angles

  1-3-4  129.39301818   1-4-3   21.02445815   2-1-3  180.00000000   2-1-4  150.41747634

  3-1-4   29.58252366


 BASIS DATA

   Nr Sym  Nuc  Type         Exponents   Contraction coefficients

   1.1 A'    1  1s         8236.000000     0.000531   -0.000113    0.000000    0.000000
   2.1 A'                  1235.000000     0.004108   -0.000878    0.000000    0.000000
   3.1 A'                   280.800000     0.021087   -0.004540    0.000000    0.000000
   4.1 A'                    79.270000     0.081853   -0.018133    0.000000    0.000000
                             25.590000     0.234817   -0.055760    0.000000    0.000000
                              8.997000     0.434401   -0.126895    0.000000    0.000000
                              3.319000     0.346129   -0.170352    0.000000    0.000000
                              0.905900     0.039378    0.140382    1.000000    0.000000
                              0.364300    -0.008983    0.598684    0.000000    0.000000
                              0.128500     0.002385    0.395389    0.000000    1.000000
   5.1 A'    1  1s            0.044020     1.000000
   6.1 A'    1  2px          18.710000     0.014031
                              4.133000     0.086866
                              1.200000     0.290216
                              0.382700     0.501008
                              0.120900     0.343406
   7.1 A'    1  2pz          18.710000     0.014031
                              4.133000     0.086866
                              1.200000     0.290216
                              0.382700     0.501008
                              0.120900     0.343406
   8.1 A'    1  2px          18.710000     0.000000
                              4.133000     0.000000
                              1.200000     0.000000
                              0.382700     1.000000
                              0.120900     0.000000
   9.1 A'    1  2pz          18.710000     0.000000
                              4.133000     0.000000
                              1.200000     0.000000
                              0.382700     1.000000
                              0.120900     0.000000
  10.1 A'    1  2px          18.710000     0.000000
                              4.133000     0.000000
                              1.200000     0.000000
                              0.382700     0.000000
                              0.120900     1.000000
  11.1 A'    1  2pz          18.710000     0.000000
                              4.133000     0.000000
                              1.200000     0.000000
                              0.382700     0.000000
                              0.120900     1.000000
  12.1 A'    1  2px           0.035690     1.000000
  13.1 A'    1  2pz           0.035690     1.000000
  14.1 A'    1  3d0           1.097000     1.000000
  15.1 A'    1  3d1+          1.097000     1.000000
  16.1 A'    1  3d2+          1.097000     1.000000
  17.1 A'    1  3d0           0.318000     1.000000
  18.1 A'    1  3d1+          0.318000     1.000000
  19.1 A'    1  3d2+          0.318000     1.000000
  20.1 A'    1  3d0           0.100000     1.000000
  21.1 A'    1  3d1+          0.100000     1.000000
  22.1 A'    1  3d2+          0.100000     1.000000
  23.1 A'    1  4f1+          0.761000     1.000000
  24.1 A'    1  4f0           0.761000     1.000000
  25.1 A'    1  4f3+          0.761000     1.000000
  26.1 A'    1  4f2+          0.761000     1.000000
  27.1 A'    1  4f1+          0.268000     1.000000
  28.1 A'    1  4f0           0.268000     1.000000
  29.1 A'    1  4f3+          0.268000     1.000000
  30.1 A'    1  4f2+          0.268000     1.000000
  31.1 A'    2  1s        11420.000000     0.000523   -0.000115    0.000000    0.000000
  32.1 A'                  1712.000000     0.004045   -0.000895    0.000000    0.000000
  33.1 A'                   389.300000     0.020775   -0.004624    0.000000    0.000000
  34.1 A'                   110.000000     0.080727   -0.018528    0.000000    0.000000
                             35.570000     0.233074   -0.057339    0.000000    0.000000
                             12.540000     0.433501   -0.132076    0.000000    0.000000
                              4.644000     0.347472   -0.172510    0.000000    0.000000
                              1.293000     0.041262    0.151814    1.000000    0.000000
                              0.511800    -0.008508    0.599944    0.000000    0.000000
                              0.178700     0.002384    0.387462    0.000000    1.000000
  35.1 A'    2  1s            0.057600     1.000000
  36.1 A'    2  2px          26.630000     0.014670
                              5.948000     0.091764
                              1.742000     0.298683
                              0.555000     0.498487
                              0.172500     0.337023
  37.1 A'    2  2pz          26.630000     0.014670
                              5.948000     0.091764
                              1.742000     0.298683
                              0.555000     0.498487
                              0.172500     0.337023
  38.1 A'    2  2px          26.630000     0.000000
                              5.948000     0.000000
                              1.742000     0.000000
                              0.555000     1.000000
                              0.172500     0.000000
  39.1 A'    2  2pz          26.630000     0.000000
                              5.948000     0.000000
                              1.742000     0.000000
                              0.555000     1.000000
                              0.172500     0.000000
  40.1 A'    2  2px          26.630000     0.000000
                              5.948000     0.000000
                              1.742000     0.000000
                              0.555000     0.000000
                              0.172500     1.000000
  41.1 A'    2  2pz          26.630000     0.000000
                              5.948000     0.000000
                              1.742000     0.000000
                              0.555000     0.000000
                              0.172500     1.000000
  42.1 A'    2  2px           0.049100     1.000000
  43.1 A'    2  2pz           0.049100     1.000000
  44.1 A'    2  3d0           1.654000     1.000000
  45.1 A'    2  3d1+          1.654000     1.000000
  46.1 A'    2  3d2+          1.654000     1.000000
  47.1 A'    2  3d0           0.469000     1.000000
  48.1 A'    2  3d1+          0.469000     1.000000
  49.1 A'    2  3d2+          0.469000     1.000000
  50.1 A'    2  3d0           0.151000     1.000000
  51.1 A'    2  3d1+          0.151000     1.000000
  52.1 A'    2  3d2+          0.151000     1.000000
  53.1 A'    2  4f1+          1.093000     1.000000
  54.1 A'    2  4f0           1.093000     1.000000
  55.1 A'    2  4f3+          1.093000     1.000000
  56.1 A'    2  4f2+          1.093000     1.000000
  57.1 A'    2  4f1+          0.364000     1.000000
  58.1 A'    2  4f0           0.364000     1.000000
  59.1 A'    2  4f3+          0.364000     1.000000
  60.1 A'    2  4f2+          0.364000     1.000000
  61.1 A'    3  1s        15330.000000     0.000508   -0.000115    0.000000    0.000000
  62.1 A'                  2299.000000     0.003929   -0.000895    0.000000    0.000000
  63.1 A'                   522.400000     0.020243   -0.004636    0.000000    0.000000
  64.1 A'                   147.300000     0.079181   -0.018724    0.000000    0.000000
                             47.550000     0.230687   -0.058463    0.000000    0.000000
                             16.760000     0.433118   -0.136463    0.000000    0.000000
                              6.207000     0.350260   -0.175740    0.000000    0.000000
                              1.752000     0.042728    0.160934    1.000000    0.000000
                              0.688200    -0.008154    0.603418    0.000000    0.000000
                              0.238400     0.002381    0.378765    0.000000    1.000000
  65.1 A'    3  1s            0.073760     1.000000
  66.1 A'    3  2px          34.460000     0.015928
                              7.749000     0.099740
                              2.280000     0.310492
                              0.715600     0.491026
                              0.214000     0.336337
  67.1 A'    3  2pz          34.460000     0.015928
                              7.749000     0.099740
                              2.280000     0.310492
                              0.715600     0.491026
                              0.214000     0.336337
  68.1 A'    3  2px          34.460000     0.000000
                              7.749000     0.000000
                              2.280000     0.000000
                              0.715600     1.000000
                              0.214000     0.000000
  69.1 A'    3  2pz          34.460000     0.000000
                              7.749000     0.000000
                              2.280000     0.000000
                              0.715600     1.000000
                              0.214000     0.000000
  70.1 A'    3  2px          34.460000     0.000000
                              7.749000     0.000000
                              2.280000     0.000000
                              0.715600     0.000000
                              0.214000     1.000000
  71.1 A'    3  2pz          34.460000     0.000000
                              7.749000     0.000000
                              2.280000     0.000000
                              0.715600     0.000000
                              0.214000     1.000000
  72.1 A'    3  2px           0.059740     1.000000
  73.1 A'    3  2pz           0.059740     1.000000
  74.1 A'    3  3d0           2.314000     1.000000
  75.1 A'    3  3d1+          2.314000     1.000000
  76.1 A'    3  3d2+          2.314000     1.000000
  77.1 A'    3  3d0           0.645000     1.000000
  78.1 A'    3  3d1+          0.645000     1.000000
  79.1 A'    3  3d2+          0.645000     1.000000
  80.1 A'    3  3d0           0.214000     1.000000
  81.1 A'    3  3d1+          0.214000     1.000000
  82.1 A'    3  3d2+          0.214000     1.000000
  83.1 A'    3  4f1+          1.428000     1.000000
  84.1 A'    3  4f0           1.428000     1.000000
  85.1 A'    3  4f3+          1.428000     1.000000
  86.1 A'    3  4f2+          1.428000     1.000000
  87.1 A'    3  4f1+          0.500000     1.000000
  88.1 A'    3  4f0           0.500000     1.000000
  89.1 A'    3  4f3+          0.500000     1.000000
  90.1 A'    3  4f2+          0.500000     1.000000
  91.1 A'    4  1s       545000.000000     0.000046   -0.000013    0.000004    0.000000    0.000000
  92.1 A'                 81640.000000     0.000354   -0.000100    0.000031    0.000000    0.000000
  93.1 A'                 18580.000000     0.001858   -0.000530    0.000166    0.000000    0.000000
  94.1 A'                  5261.000000     0.007769   -0.002214    0.000692    0.000000    0.000000
  95.1 A'                  1717.000000     0.027423   -0.007968    0.002498    0.000000    0.000000
                            619.900000     0.082384   -0.024580    0.007711    0.000000    0.000000
                            241.600000     0.201230   -0.065780    0.020871    0.000000    0.000000
                             99.790000     0.356781   -0.137942    0.044396    0.000000    0.000000
                             43.150000     0.349563   -0.201630    0.068022    0.000000    0.000000
                             19.140000     0.118266   -0.041283    0.014135    0.000000    0.000000
                              7.488000     0.005602    0.484680   -0.207489    0.000000    0.000000
                              3.205000     0.000483    0.579224   -0.425045    0.000000    0.000000
                              1.196000    -0.000148    0.087908    0.070486    1.000000    0.000000
                              0.520400     0.000029   -0.007276    0.733627    0.000000    0.000000
                              0.195400    -0.000023    0.002329    0.396005    0.000000    1.000000
  96.1 A'    4  1s            0.068500     1.000000
  97.1 A'    4  2px         761.800000     0.002370
                            180.200000     0.019020
                             57.500000     0.088081
                             21.240000     0.256377
                              8.388000     0.438711
                              3.416000     0.347569
                              1.206000     0.056674
                              0.452300    -0.005239
                              0.154500     0.001644
  98.1 A'    4  2pz         761.800000     0.002370
                            180.200000     0.019020
                             57.500000     0.088081
                             21.240000     0.256377
                              8.388000     0.438711
                              3.416000     0.347569
                              1.206000     0.056674
                              0.452300    -0.005239
                              0.154500     0.001644
  99.1 A'    4  2px         761.800000    -0.000667
                            180.200000    -0.005327
                             57.500000    -0.025549
                             21.240000    -0.075720
                              8.388000    -0.141133
                              3.416000    -0.093277
                              1.206000     0.282872
                              0.452300     0.562450
                              0.154500     0.325059
 100.1 A'    4  2pz         761.800000    -0.000667
                            180.200000    -0.005327
                             57.500000    -0.025549
                             21.240000    -0.075720
                              8.388000    -0.141133
                              3.416000    -0.093277
                              1.206000     0.282872
                              0.452300     0.562450
                              0.154500     0.325059
 101.1 A'    4  2px         761.800000     0.000000
                            180.200000     0.000000
                             57.500000     0.000000
                             21.240000     0.000000
                              8.388000     0.000000
                              3.416000     0.000000
                              1.206000     1.000000
                              0.452300     0.000000
                              0.154500     0.000000
 102.1 A'    4  2pz         761.800000     0.000000
                            180.200000     0.000000
                             57.500000     0.000000
                             21.240000     0.000000
                              8.388000     0.000000
                              3.416000     0.000000
                              1.206000     1.000000
                              0.452300     0.000000
                              0.154500     0.000000
 103.1 A'    4  2px         761.800000     0.000000
                            180.200000     0.000000
                             57.500000     0.000000
                             21.240000     0.000000
                              8.388000     0.000000
                              3.416000     0.000000
                              1.206000     0.000000
                              0.452300     0.000000
                              0.154500     1.000000
 104.1 A'    4  2pz         761.800000     0.000000
                            180.200000     0.000000
                             57.500000     0.000000
                             21.240000     0.000000
                              8.388000     0.000000
                              3.416000     0.000000
                              1.206000     0.000000
                              0.452300     0.000000
                              0.154500     1.000000
 105.1 A'    4  2px           0.048700     1.000000
 106.1 A'    4  2pz           0.048700     1.000000
 107.1 A'    4  3d0           0.410000     1.000000
 108.1 A'    4  3d1+          0.410000     1.000000
 109.1 A'    4  3d2+          0.410000     1.000000
 110.1 A'    4  3d0           1.254000     1.000000
 111.1 A'    4  3d1+          1.254000     1.000000
 112.1 A'    4  3d2+          1.254000     1.000000
 113.1 A'    4  3d0           0.169000     1.000000
 114.1 A'    4  3d1+          0.169000     1.000000
 115.1 A'    4  3d2+          0.169000     1.000000
 116.1 A'    4  4f1+          0.890000     1.000000
 117.1 A'    4  4f0           0.890000     1.000000
 118.1 A'    4  4f3+          0.890000     1.000000
 119.1 A'    4  4f2+          0.890000     1.000000
 120.1 A'    4  4f1+          0.406000     1.000000
 121.1 A'    4  4f0           0.406000     1.000000
 122.1 A'    4  4f3+          0.406000     1.000000
 123.1 A'    4  4f2+          0.406000     1.000000
   1.2 A"    1  2py          18.710000     0.014031    0.000000    0.000000
   2.2 A"                     4.133000     0.086866    0.000000    0.000000
   3.2 A"                     1.200000     0.290216    0.000000    0.000000
                              0.382700     0.501008    1.000000    0.000000
                              0.120900     0.343406    0.000000    1.000000
   4.2 A"    1  2py           0.035690     1.000000
   5.2 A"    1  3d2-          1.097000     1.000000
   6.2 A"    1  3d1-          1.097000     1.000000
   7.2 A"    1  3d2-          0.318000     1.000000
   8.2 A"    1  3d1-          0.318000     1.000000
   9.2 A"    1  3d2-          0.100000     1.000000
  10.2 A"    1  3d1-          0.100000     1.000000
  11.2 A"    1  4f1-          0.761000     1.000000
  12.2 A"    1  4f2-          0.761000     1.000000
  13.2 A"    1  4f3-          0.761000     1.000000
  14.2 A"    1  4f1-          0.268000     1.000000
  15.2 A"    1  4f2-          0.268000     1.000000
  16.2 A"    1  4f3-          0.268000     1.000000
  17.2 A"    2  2py          26.630000     0.014670    0.000000    0.000000
  18.2 A"                     5.948000     0.091764    0.000000    0.000000
  19.2 A"                     1.742000     0.298683    0.000000    0.000000
                              0.555000     0.498487    1.000000    0.000000
                              0.172500     0.337023    0.000000    1.000000
  20.2 A"    2  2py           0.049100     1.000000
  21.2 A"    2  3d2-          1.654000     1.000000
  22.2 A"    2  3d1-          1.654000     1.000000
  23.2 A"    2  3d2-          0.469000     1.000000
  24.2 A"    2  3d1-          0.469000     1.000000
  25.2 A"    2  3d2-          0.151000     1.000000
  26.2 A"    2  3d1-          0.151000     1.000000
  27.2 A"    2  4f1-          1.093000     1.000000
  28.2 A"    2  4f2-          1.093000     1.000000
  29.2 A"    2  4f3-          1.093000     1.000000
  30.2 A"    2  4f1-          0.364000     1.000000
  31.2 A"    2  4f2-          0.364000     1.000000
  32.2 A"    2  4f3-          0.364000     1.000000
  33.2 A"    3  2py          34.460000     0.015928    0.000000    0.000000
  34.2 A"                     7.749000     0.099740    0.000000    0.000000
  35.2 A"                     2.280000     0.310492    0.000000    0.000000
                              0.715600     0.491026    1.000000    0.000000
                              0.214000     0.336337    0.000000    1.000000
  36.2 A"    3  2py           0.059740     1.000000
  37.2 A"    3  3d2-          2.314000     1.000000
  38.2 A"    3  3d1-          2.314000     1.000000
  39.2 A"    3  3d2-          0.645000     1.000000
  40.2 A"    3  3d1-          0.645000     1.000000
  41.2 A"    3  3d2-          0.214000     1.000000
  42.2 A"    3  3d1-          0.214000     1.000000
  43.2 A"    3  4f1-          1.428000     1.000000
  44.2 A"    3  4f2-          1.428000     1.000000
  45.2 A"    3  4f3-          1.428000     1.000000
  46.2 A"    3  4f1-          0.500000     1.000000
  47.2 A"    3  4f2-          0.500000     1.000000
  48.2 A"    3  4f3-          0.500000     1.000000
  49.2 A"    4  2py         761.800000     0.002370   -0.000667    0.000000    0.000000
  50.2 A"                   180.200000     0.019020   -0.005327    0.000000    0.000000
  51.2 A"                    57.500000     0.088081   -0.025549    0.000000    0.000000
  52.2 A"                    21.240000     0.256377   -0.075720    0.000000    0.000000
                              8.388000     0.438711   -0.141133    0.000000    0.000000
                              3.416000     0.347569   -0.093277    0.000000    0.000000
                              1.206000     0.056674    0.282872    1.000000    0.000000
                              0.452300    -0.005239    0.562450    0.000000    0.000000
                              0.154500     0.001644    0.325059    0.000000    1.000000
  53.2 A"    4  2py           0.048700     1.000000
  54.2 A"    4  3d2-          0.410000     1.000000
  55.2 A"    4  3d1-          0.410000     1.000000
  56.2 A"    4  3d2-          1.254000     1.000000
  57.2 A"    4  3d1-          1.254000     1.000000
  58.2 A"    4  3d2-          0.169000     1.000000
  59.2 A"    4  3d1-          0.169000     1.000000
  60.2 A"    4  4f1-          0.890000     1.000000
  61.2 A"    4  4f2-          0.890000     1.000000
  62.2 A"    4  4f3-          0.890000     1.000000
  63.2 A"    4  4f1-          0.406000     1.000000
  64.2 A"    4  4f2-          0.406000     1.000000
  65.2 A"    4  4f3-          0.406000     1.000000

 NUCLEAR CHARGE:                   39
 NUMBER OF PRIMITIVE AOS:         285
 NUMBER OF SYMMETRY AOS:          249
 NUMBER OF CONTRACTIONS:          188   ( 123A'  +  65A"  )
 NUMBER OF CORE ORBITALS:           8   (   7A'  +   1A"  )
 NUMBER OF VALENCE ORBITALS:       16   (  12A'  +   4A"  )


 NUCLEAR REPULSION ENERGY  139.88703128


 Eigenvalues of metric

         1 0.192E-03 0.251E-03 0.326E-03 0.746E-03 0.106E-02 0.112E-02 0.139E-02 0.191E-02
         2 0.257E-02 0.298E-02 0.972E-02 0.122E-01 0.170E-01 0.193E-01 0.250E-01 0.307E-01


 Contracted 2-electron integrals neglected if value below      1.0D-11
 AO integral compression algorithm  1   Integral accuracy      1.0D-11

     377.750 MB (compressed) written to integral file ( 48.5%)

     Node minimum: 377.750 MB, node maximum: 377.750 MB


 NUMBER OF SORTED TWO-ELECTRON INTEGRALS:   80456646.     BUFFER LENGTH:  32768
 NUMBER OF SEGMENTS:   6  SEGMENT LENGTH:   15997996      RECORD LENGTH: 524288

 Memory used in sort:      16.56 MW

 SORT1 READ    97245779. AND WROTE    77060470. INTEGRALS IN    223 RECORDS. CPU TIME:     0.95 SEC, REAL TIME:     2.28 SEC
 SORT2 READ    77060470. AND WROTE    80456646. INTEGRALS IN   1441 RECORDS. CPU TIME:     1.04 SEC, REAL TIME:     1.37 SEC

 FILE SIZES:   FILE 1:   323.9 MBYTE,  FILE 4:   935.4 MBYTE,   TOTAL:   1259.3 MBYTE

 OPERATOR DM      FOR CENTER  0  COORDINATES:    0.000000    0.000000    0.000000


 **********************************************************************************************************************************
 DATASETS  * FILE   NREC   LENGTH (MB)   RECORD NAMES
              1      19      324.16       500      610      700      900      950      970     1000      129      960     1100   
                                          VAR    BASINP    GEOM    SYMINP    ZMAT    AOBASIS   BASIS     P2S    ABASIS      S 
                                         1400     1410     1200     1210     1080     1600     1650     1300     1700   
                                           T        V       H0       H01     AOSYM     SMH    MOLCAS    ERIS     OPER   

 PROGRAMS   *        TOTAL       INT
 CPU TIMES  *         7.76      7.72
 REAL TIME  *        11.03 SEC
 DISK USED  *         1.64 GB      
 GA USED    *         0.00 MB       (max)       0.00 MB       (current)
 **********************************************************************************************************************************

1PROGRAM * RHF-SCF (OPEN SHELL)       Authors: W. Meyer, H.-J. Werner


 NUMBER OF ELECTRONS:      20+   19-    SPACE SYMMETRY=1    SPIN SYMMETRY=Doublet 
 CONVERGENCE THRESHOLDS:    1.00E-05 (Density)    1.00E-07 (Energy)
 MAX. NUMBER OF ITERATIONS:       60
 INTERPOLATION TYPE:            DIIS
 INTERPOLATION STEPS:              2 (START)      1 (STEP)
 LEVEL SHIFTS:                 -0.30 (CLOSED)  0.00 (OPEN) 


 Singly occupied orbitals:     16.1
 Orbital guess generated from atomic densities. Full valence occupancy:   19   5

 Molecular orbital dump at record        2100.2

 ITERATION    DDIFF          GRAD             ENERGY        2-EL.EN.            DIPOLE MOMENTS         DIIS
    1      0.000D+00      0.000D+00      -693.61761606    792.410853    0.48639    0.00000   -3.86957    0
    2      0.000D+00      0.628D-02      -693.67900267    801.387944   -0.07504    0.00000   -1.12493    1
    3      0.102D-01      0.478D-02      -693.72984545    798.031202    0.24080    0.00000   -2.08684    2
    4      0.468D-02      0.715D-03      -693.73319996    798.174847    0.20606    0.00000   -2.03687    3
    5      0.974D-03      0.368D-03      -693.73470013    798.091065    0.21930    0.00000   -2.01935    4
    6      0.652D-03      0.165D-03      -693.73513458    798.150269    0.21606    0.00000   -2.00889    5
    7      0.403D-03      0.639D-04      -693.73518980    798.153338    0.21435    0.00000   -2.00046    6
    8      0.167D-03      0.268D-04      -693.73519553    798.153724    0.21480    0.00000   -2.00091    7
    9      0.505D-04      0.129D-04      -693.73519753    798.151483    0.21495    0.00000   -2.00054    8
   10      0.326D-04      0.706D-05      -693.73519844    798.153957    0.21509    0.00000   -1.99918    9
   11      0.259D-04      0.422D-05      -693.73519874    798.153762    0.21520    0.00000   -1.99876    9
   12      0.167D-04      0.176D-05      -693.73519880    798.153956    0.21528    0.00000   -1.99839    9
   13      0.960D-05      0.740D-06      -693.73519880    798.154171    0.21526    0.00000   -1.99829    0

 Final alpha occupancy:  16   4
 Final beta  occupancy:  15   4

 !RHF STATE 1.1 Energy               -693.735198804299
 Nuclear energy                       139.88703128
 One-electron energy                -1232.69931538
 Two-electron energy                  399.07708530
 Virial quotient                       -0.99910385
 !RHF STATE 1.1 Dipole moment           0.21525942     0.00000000    -1.99829299
 Dipole moment /Debye                   0.54709904     0.00000000    -5.07882149

 ELECTRON ORBITALS
 =================


   Orb  Occ    Energy  Couls-En    Coefficients

                                   1 1s      1 1s      1 1s      1 1s      1 1s      1 2px     1 2pz     1 2px     1 2pz     1 2px  
                                   1 2pz     1 2px     1 2pz     1 3d0     1 3d1+    1 3d2+    1 3d0     1 3d1+    1 3d2+    1 3d0  
                                   1 3d1+    1 3d2+    1 4f1+    1 4f0     1 4f3+    1 4f2+    1 4f1+    1 4f0     1 4f3+    1 4f2+ 
                                   2 1s      2 1s      2 1s      2 1s      2 1s      2 2px     2 2pz     2 2px     2 2pz     2 2px  
                                   2 2pz     2 2px     2 2pz     2 3d0     2 3d1+    2 3d2+    2 3d0     2 3d1+    2 3d2+    2 3d0  
                                   2 3d1+    2 3d2+    2 4f1+    2 4f0     2 4f3+    2 4f2+    2 4f1+    2 4f0     2 4f3+    2 4f2+ 
                                   3 1s      3 1s      3 1s      3 1s      3 1s      3 2px     3 2pz     3 2px     3 2pz     3 2px  
                                   3 2pz     3 2px     3 2pz     3 3d0     3 3d1+    3 3d2+    3 3d0     3 3d1+    3 3d2+    3 3d0  
                                   3 3d1+    3 3d2+    3 4f1+    3 4f0     3 4f3+    3 4f2+    3 4f1+    3 4f0     3 4f3+    3 4f2+ 
                                   4 1s      4 1s      4 1s      4 1s      4 1s      4 1s      4 2px     4 2pz     4 2px     4 2pz  
                                   4 2px     4 2pz     4 2px     4 2pz     4 2px     4 2pz     4 3d0     4 3d1+    4 3d2+    4 3d0  
                                   4 3d1+    4 3d2+    4 3d0     4 3d1+    4 3d2+    4 4f1+    4 4f0     4 4f3+    4 4f2+    4 4f1+ 
                                   4 4f0     4 4f3+    4 4f2+ 

   1.1   2  -118.7148 -285.4741 -0.000001 -0.000003  0.000000  0.000014 -0.000002 -0.000001 -0.000001  0.000006 -0.000004  0.000002
                                -0.000009  0.000000 -0.000001  0.000000 -0.000001  0.000000  0.000007 -0.000001  0.000001  0.000004
                                 0.000003  0.000000  0.000002  0.000001  0.000000 -0.000001 -0.000001 -0.000001  0.000001 -0.000002
                                 0.000000 -0.000001  0.000000  0.000000 -0.000001  0.000000  0.000000 -0.000001 -0.000001 -0.000004
                                 0.000000 -0.000002  0.000000  0.000000  0.000000  0.000000  0.000002  0.000002  0.000000 -0.000001
                                 0.000001  0.000000  0.000000  0.000000  0.000000  0.000000 -0.000001  0.000000  0.000000  0.000000
                                 0.000002  0.000007  0.000001 -0.000049 -0.000021  0.000000  0.000000  0.000004 -0.000002  0.000019
                                 0.000033  0.000004  0.000010  0.000001  0.000001  0.000000 -0.000008 -0.000006 -0.000002 -0.000006
                                -0.000015 -0.000005  0.000001  0.000000  0.000000  0.000000  0.000004  0.000001  0.000001  0.000003
                                 1.000000 -0.000004  0.000011  0.000000  0.000029  0.000019  0.000013  0.000039  0.000024  0.000060
                                -0.000014 -0.000038 -0.000001 -0.000010  0.000002  0.000003  0.000010  0.000009  0.000002  0.000002
                                 0.000002  0.000000  0.000000  0.000001  0.000000  0.000002  0.000001  0.000000  0.000001  0.000002
                                 0.000000  0.000000  0.000000

   2.1   2   -20.6774  -62.7280  0.000577  0.002215 -0.000306  0.000460 -0.000007  0.000527 -0.001019 -0.000210 -0.000627  0.000062
                                -0.000765 -0.000064  0.000021  0.000349 -0.000256  0.000031  0.001440 -0.000727  0.000024 -0.000069
                                 0.000132 -0.000098 -0.000172  0.000064 -0.000045  0.000118  0.000805 -0.000635 -0.000009 -0.000163
                                -0.000036 -0.000129  0.000084 -0.000325  0.000119 -0.000031 -0.000046 -0.000169  0.000481 -0.000325
                                 0.000516  0.000017 -0.000075 -0.000077  0.000049  0.000000 -0.000106  0.000076 -0.000061  0.000003
                                 0.000065 -0.000021 -0.000067  0.000075 -0.000006  0.000022  0.000092 -0.000075 -0.000002 -0.000009
                                 0.998297 -0.003491  0.002020 -0.001599 -0.001808 -0.004084  0.002947  0.003434 -0.002765  0.002270
                                 0.001371  0.000433  0.000108  0.000216 -0.000099  0.000025 -0.000822  0.000153 -0.000251  0.000280
                                -0.000473 -0.000037 -0.000015 -0.000023  0.000012 -0.000015  0.000479  0.000170  0.000001  0.000024
                                 0.000021  0.000085  0.000081 -0.000333  0.002044  0.000971  0.000335  0.000561  0.001126  0.001929
                                -0.000507 -0.000841  0.000106  0.000604  0.000027  0.000121  0.000509  0.000622  0.000162  0.000002
                                -0.000005  0.000000  0.000236  0.000125 -0.000034  0.000150  0.000049  0.000032  0.000076  0.000218
                                 0.000094 -0.000024  0.000076

   3.1   2   -15.5810  -46.9523  0.000701  0.002382  0.000028 -0.003715 -0.000443 -0.000601  0.001390  0.000401 -0.000943  0.001950
                                -0.004975 -0.000029  0.000024  0.000180 -0.000150  0.000010  0.000563 -0.000411  0.000110 -0.000840
                                 0.000608 -0.000091  0.000644 -0.000455  0.000020 -0.000194  0.000149 -0.000298  0.000009 -0.000051
                                 0.999206 -0.001875  0.000921  0.006286  0.000911  0.002547 -0.006163 -0.001718  0.004266 -0.000397
                                 0.001379  0.000072 -0.000105  0.000401 -0.000341  0.000019 -0.000470  0.000335 -0.000106 -0.000291
                                 0.000188 -0.000023  0.000068 -0.000043 -0.000001 -0.000016 -0.000279  0.000199 -0.000011  0.000097
                                -0.000494 -0.001558  0.000316 -0.001551 -0.002290 -0.000028  0.000077  0.000393 -0.001029  0.000379
                                 0.001843  0.000414 -0.000396 -0.000056  0.000055 -0.000006 -0.000232  0.000176 -0.000060  0.000062
                                -0.000893  0.000023  0.000046 -0.000058  0.000007 -0.000035  0.000148  0.000074 -0.000012  0.000058
                                -0.000001 -0.000010 -0.000030 -0.000056  0.001594  0.000695  0.000114  0.000242  0.000363  0.000780
                                -0.000153 -0.000313  0.000386  0.000570 -0.000011  0.000131  0.000090  0.000143  0.000033  0.000017
                                 0.000003  0.000003  0.000133  0.000256 -0.000025 -0.000001  0.000014  0.000023  0.000011  0.000058
                                -0.000049 -0.000047 -0.000006

   4.1   2   -12.4260  -56.2059  0.000059  0.000235  0.000085 -0.001049  0.000562  0.000024 -0.000100 -0.000299  0.000530  0.000138
                                 0.000575  0.000110 -0.000184  0.000030  0.000017 -0.000004 -0.000294  0.000083 -0.000126 -0.000525
                                 0.000113  0.000035 -0.000031  0.000044 -0.000015  0.000051  0.000228 -0.000020 -0.000082  0.000075
                                 0.000062  0.000200  0.000002  0.000068 -0.000053  0.000003 -0.000016 -0.000028  0.000063 -0.000042
                                 0.000305  0.000032  0.000154 -0.000001  0.000009  0.000008 -0.000104  0.000021 -0.000065 -0.000048
                                 0.000035 -0.000049 -0.000014  0.000016 -0.000003  0.000007  0.000022  0.000012 -0.000016  0.000031
                                 0.000019  0.000133 -0.000123  0.001470  0.000818  0.000016  0.000000 -0.000261 -0.000164 -0.000495
                                 0.000072 -0.000331 -0.001013  0.000026  0.000023  0.000001  0.000227  0.000161  0.000094 -0.000075
                                 0.000254  0.000218 -0.000064 -0.000022  0.000009 -0.000018  0.000119  0.000059 -0.000060  0.000008
                                -0.000095  0.999410 -0.001036  0.000393  0.001118 -0.002002  0.001044  0.002364 -0.000386 -0.001228
                                 0.000420  0.001133  0.000105  0.000393 -0.000195 -0.000247 -0.000592 -0.000438 -0.000093  0.000430
                                 0.000367  0.000089  0.000181  0.000127  0.000043  0.000030  0.000009  0.000002  0.000004 -0.000159
                                -0.000087 -0.000013 -0.000047

   5.1   2   -11.3520  -39.6538  1.000377  0.006365  0.003499 -0.003137  0.001634  0.002846 -0.007858 -0.003033  0.008862 -0.002085
                                 0.005705  0.000108  0.000176  0.001520 -0.001227  0.000328 -0.002251  0.001382 -0.000255 -0.000357
                                 0.000421 -0.000025 -0.000314  0.000305 -0.000012  0.000115 -0.000470  0.000347 -0.000051  0.000150
                                -0.000508  0.000274  0.000399 -0.003695 -0.002829  0.000376 -0.000955 -0.000571  0.001443 -0.001149
                                 0.002830 -0.000385  0.000691 -0.000052  0.000055 -0.000017 -0.001143  0.000915 -0.000180 -0.000582
                                 0.000410 -0.000108 -0.000074  0.000038 -0.000008  0.000030 -0.000540  0.000404 -0.000025  0.000189
                                 0.000577  0.003444 -0.000100  0.003998  0.001779 -0.000569  0.001169 -0.000218  0.000480 -0.000602
                                -0.002222 -0.000352 -0.000860  0.000194 -0.000157  0.000030 -0.000863  0.000598 -0.000098 -0.000846
                                 0.000690  0.000156 -0.000033  0.000015  0.000012  0.000007  0.000911 -0.000800 -0.000011 -0.000274
                                 0.000062  0.000400  0.000690 -0.000119 -0.001715 -0.001976 -0.000064 -0.000090 -0.000195 -0.000292
                                 0.000105  0.000169 -0.000404 -0.001414 -0.000201 -0.000258 -0.000103 -0.000081 -0.000145  0.000052
                                 0.000019  0.000023 -0.000461 -0.000270 -0.000014  0.000043  0.000017  0.000011 -0.000007  0.000003
                                -0.000045 -0.000110 -0.000078

   6.1   2    -9.6761  -52.7343  0.000511  0.001785  0.000291 -0.000744 -0.000658  0.000059 -0.000261  0.000309 -0.000506 -0.000276
                                -0.000241  0.000007  0.000521 -0.000019  0.000087  0.000063 -0.001530  0.000060 -0.000403  0.000717
                                -0.000817 -0.000085 -0.000037  0.000052  0.000046  0.000065 -0.000190  0.000575 -0.000391  0.000478
                                -0.000030 -0.000115 -0.000039  0.000922  0.000802 -0.000138  0.000062  0.000240 -0.000240  0.001121
                                -0.001502  0.000197 -0.000580 -0.000004  0.000039  0.000017  0.000069 -0.000340 -0.000057  0.000356
                                -0.000448  0.000130 -0.000003  0.000012 -0.000011 -0.000005  0.000102  0.000017  0.000014  0.000034
                                -0.000242 -0.000608 -0.000174  0.009622  0.004601  0.000272 -0.000009 -0.000821  0.000107 -0.004533
                                -0.012527 -0.000540 -0.000580  0.000035 -0.000012 -0.000017  0.000722  0.000793  0.000334  0.001391
                                 0.004346  0.001315 -0.000046  0.000036  0.000042  0.000001 -0.000258 -0.000449 -0.000224 -0.000187
                                 0.000181 -0.001807  0.003744  0.000536 -0.016894 -0.002308  0.447680  0.889918 -0.004348 -0.008983
                                 0.002567  0.005506 -0.001842 -0.004087 -0.000228 -0.000312 -0.002310 -0.002313 -0.000655  0.000779
                                 0.000768  0.000210 -0.001447 -0.001359 -0.000120  0.000240  0.000122 -0.000002  0.000052 -0.001088
                                -0.000496 -0.000076 -0.000416

   7.1   2    -9.6727  -52.7094  0.000101  0.000330  0.000030  0.000419  0.000084  0.000171  0.000219  0.000121 -0.001275  0.000147
                                -0.004206  0.000167 -0.001009 -0.000051 -0.000069  0.000051  0.000523  0.000797 -0.000250  0.001008
                                 0.000897 -0.000130  0.000026 -0.000064  0.000024 -0.000079  0.000074  0.000303 -0.000081  0.000030
                                 0.000013  0.000045 -0.000034  0.002584  0.001173  0.000070  0.000122 -0.000137 -0.000505 -0.000460
                                -0.001014 -0.000144  0.000219 -0.000008 -0.000029  0.000020  0.000315  0.000100 -0.000118 -0.000201
                                 0.000040 -0.000274 -0.000003 -0.000034  0.000014 -0.000025  0.000014  0.000044 -0.000056  0.000123
                                 0.000020  0.000073  0.000006 -0.001038  0.000496  0.000041  0.000016 -0.000039 -0.000094  0.001550
                                -0.002744  0.000238  0.000618 -0.000004  0.000006  0.000019  0.000024  0.000021 -0.000156  0.001664
                                 0.000753 -0.000433  0.000027  0.000012 -0.000022 -0.000009  0.000002 -0.000348  0.000151  0.000125
                                 0.000074  0.000636  0.000640 -0.000213 -0.002676 -0.002211  0.893022 -0.449146 -0.001513  0.000485
                                 0.000462 -0.000273 -0.000224 -0.002627 -0.000496 -0.000171  0.000629 -0.000767 -0.000377 -0.000451
                                 0.000435  0.000240 -0.000633 -0.000332 -0.000182  0.000059 -0.000168  0.000040  0.000126 -0.000179
                                 0.000442 -0.000110 -0.000349

   8.1   2    -1.5988  -19.2559 -0.012014  0.299976 -0.002704 -0.062803  0.019752  0.077039 -0.204936 -0.021318  0.040812 -0.039399
                                 0.098029 -0.000347 -0.000613  0.016330 -0.011347  0.002416  0.014045 -0.005720  0.001225 -0.011181
                                 0.007745 -0.001653  0.002970 -0.003952  0.000235 -0.000919  0.000451 -0.001221 -0.000163  0.000981
                                 0.000170  0.027866  0.001320 -0.045631 -0.029343  0.000686 -0.014744 -0.001739  0.005420 -0.014409
                                 0.032687 -0.003703  0.009413  0.000469 -0.000346  0.000118 -0.005160  0.004024 -0.001012 -0.004771
                                 0.004713 -0.001258 -0.000751  0.000662  0.000027  0.000142 -0.002208  0.001700 -0.000330  0.000902
                                -0.008058  0.750633 -0.010258 -0.062418 -0.001556 -0.095556  0.066148 -0.006776 -0.002843  0.029854
                                -0.030967  0.004173 -0.013591  0.005533 -0.002401  0.001590  0.017058 -0.002137  0.004477 -0.007714
                                 0.009578 -0.002132 -0.004068  0.001075 -0.000477  0.000208 -0.003164  0.001422 -0.000136 -0.001457
                                 0.000477 -0.000161  0.416464 -0.003103 -0.027152 -0.019506 -0.002453 -0.005309  0.057590  0.127192
                                 0.000148 -0.000171 -0.013381 -0.029894 -0.003491 -0.002572  0.011755  0.009202  0.002635  0.009639
                                 0.008475  0.001902 -0.003001 -0.002427  0.000148  0.004372  0.002809  0.000114  0.001471  0.001080
                                 0.001737  0.000705  0.001043

   9.1   2    -1.3603  -19.2949  0.007255 -0.312965  0.000402  0.059644 -0.005501 -0.076980  0.148965  0.002099 -0.011116  0.030643
                                -0.060951 -0.001680 -0.005984 -0.012580  0.012170 -0.003081 -0.004392  0.008912 -0.002769 -0.006077
                                -0.003983  0.001471 -0.004863  0.002171 -0.000517  0.002171  0.002412 -0.005246  0.000425 -0.000223
                                 0.000923 -0.070445  0.000082  0.034123  0.016743 -0.011425  0.028068  0.000762  0.000301  0.010533
                                -0.013806  0.004897 -0.000852 -0.001278  0.001030 -0.000212 -0.000201 -0.000465  0.000268  0.001540
                                -0.000649  0.000772  0.000241  0.000096  0.000019 -0.000083  0.001247 -0.001401  0.000063 -0.000588
                                 0.002198 -0.329281  0.002626  0.024014 -0.014900  0.006613 -0.255552  0.000136  0.001040 -0.002315
                                 0.114133  0.001167  0.005103 -0.002947  0.005837 -0.000017 -0.002634  0.014067  0.000260  0.007121
                                -0.016602 -0.000437  0.000529 -0.002717  0.000014 -0.001161  0.000721  0.001232 -0.000204 -0.000765
                                 0.000457  0.003920  0.869276  0.000390  0.015897  0.011197  0.002229  0.003576  0.015830  0.009567
                                -0.003045 -0.004460  0.002275  0.020473  0.000437 -0.001187  0.000527  0.003238  0.001306 -0.000206
                                 0.000650  0.000409  0.007357  0.004032 -0.000729  0.000336 -0.000239  0.000362  0.000591  0.001051
                                -0.000334 -0.000363  0.000161

  10.1   2    -1.1694  -14.8678 -0.007402  0.487014 -0.000881 -0.104770  0.010513 -0.160352  0.370293  0.048436 -0.111924  0.064922
                                -0.142044  0.004673 -0.001228  0.012649 -0.010055  0.002658 -0.004067  0.000120  0.000628 -0.003623
                                 0.006520 -0.001935 -0.003009  0.002196  0.000077  0.000697  0.004864 -0.000123 -0.000422 -0.000954
                                -0.010773  0.731155 -0.007440 -0.058364  0.004028  0.097189 -0.228561  0.001031 -0.002906 -0.021227
                                 0.043745 -0.003808  0.002809  0.010652 -0.008507  0.001651  0.021375 -0.017547  0.002787 -0.001076
                                 0.000788 -0.001368  0.004054 -0.003207  0.000315 -0.001549  0.003354 -0.001800  0.000069 -0.000914
                                 0.001499 -0.162317  0.002855 -0.060442 -0.029146 -0.014214  0.012881  0.005489 -0.005220  0.011974
                                -0.065930  0.000051 -0.018510 -0.000108  0.000033  0.000043 -0.010564  0.005078 -0.001123 -0.014741
                                 0.020986  0.001210  0.001062 -0.000395  0.000094 -0.000027  0.004021 -0.003841 -0.000067 -0.001835
                                -0.000039  0.000808  0.121561  0.001406 -0.011078 -0.012366 -0.000019 -0.000964 -0.033686 -0.057374
                                 0.000948  0.002646  0.005075 -0.001111 -0.002953  0.000154 -0.003099 -0.003830 -0.001074 -0.002553
                                -0.003161 -0.000883 -0.002561 -0.000921  0.001948 -0.000865 -0.000752 -0.000351 -0.000849 -0.000624
                                 0.001035  0.000435  0.000718

  11.1   2    -0.9197  -17.7515 -0.000742  0.301563  0.001754 -0.076417  0.007688  0.156414 -0.300325 -0.005644  0.025198 -0.056402
                                 0.135762  0.003594  0.006407  0.010483 -0.009746  0.002345  0.002031 -0.009307  0.002625  0.007659
                                -0.000155  0.000795  0.008241 -0.003327  0.000472 -0.003126 -0.005911  0.009691 -0.001030  0.002263
                                 0.002022 -0.160237  0.001166 -0.018801 -0.016744  0.010299  0.021989  0.000112 -0.003649  0.000638
                                -0.008546 -0.002787 -0.001393 -0.001317  0.000684  0.000026 -0.003797  0.002206 -0.000688  0.002499
                                -0.003702 -0.000109 -0.001208  0.000735 -0.000087  0.000471 -0.001615  0.002133 -0.000236  0.000937
                                -0.001850 -0.199053  0.000846 -0.095500  0.012458 -0.139942  0.581768  0.006954 -0.001281  0.019638
                                -0.088700 -0.011673 -0.003744  0.004737 -0.008475  0.000822 -0.002181 -0.023169  0.002404 -0.017714
                                 0.004500  0.002529 -0.000033  0.004892 -0.000082  0.001767  0.001057  0.001456 -0.000724  0.002433
                                -0.001006 -0.001596  0.265820  0.005860  0.062004  0.009320  0.003562  0.006599 -0.346561 -0.440427
                                 0.000253 -0.002006  0.056958  0.064985  0.000527 -0.001493 -0.012451 -0.024584 -0.008334 -0.013973
                                -0.021824 -0.006984  0.001786  0.007265  0.004463 -0.007421 -0.001209 -0.001309 -0.004451 -0.002268
                                 0.000718  0.000295 -0.000888

  12.1   2    -0.7706  -16.7637 -0.000130 -0.079611  0.001350  0.007279 -0.002722  0.200913  0.159626 -0.003953  0.016535 -0.028111
                                -0.064076  0.008264 -0.004286 -0.009850 -0.007227  0.003660 -0.019657 -0.009435  0.006192 -0.003030
                                 0.013295 -0.002425  0.001885  0.011126  0.001461 -0.004714  0.007145  0.006524  0.002177 -0.006300
                                -0.000112  0.042509  0.000484  0.018682  0.011778  0.077979  0.038168 -0.007697 -0.000465 -0.015904
                                 0.003861 -0.004580  0.002003 -0.001825 -0.002058  0.000992 -0.002523  0.000809  0.000192 -0.007022
                                 0.001553 -0.000841  0.000048  0.000167  0.000116 -0.000060 -0.000601 -0.000346 -0.000235  0.000570
                                 0.002249  0.208641  0.001491  0.107897  0.048735  0.585321  0.006984 -0.002432  0.009475 -0.047924
                                -0.024794 -0.001763 -0.022069  0.002004  0.002292 -0.005206  0.011933 -0.004605 -0.013983  0.009295
                                -0.007003 -0.005324  0.003772  0.001084  0.001290  0.000189 -0.002381 -0.007142  0.001940  0.002372
                                -0.000123  0.000653  0.052801  0.003753 -0.012164 -0.043563 -0.002422 -0.004558  0.316334 -0.569382
                                 0.002662  0.008804 -0.036538  0.020741 -0.007892 -0.007203 -0.025267 -0.000152  0.004111 -0.016381
                                 0.003757  0.004378 -0.005003 -0.004816 -0.003313 -0.001202 -0.006385  0.000838  0.001799 -0.002058
                                -0.003108 -0.000432 -0.001279

  13.1   2    -0.6407  -16.8237  0.000961  0.191169 -0.000505 -0.022413  0.008158 -0.145405 -0.169842  0.001181 -0.008836  0.010931
                                 0.025774 -0.000091 -0.010965  0.008756  0.000872 -0.001537  0.012387  0.007136 -0.004780  0.010855
                                 0.003720 -0.000065 -0.000310 -0.007956 -0.000755  0.002736 -0.002092 -0.001902 -0.002585  0.005176
                                 0.000237 -0.096722 -0.000390 -0.011893 -0.006792 -0.056626 -0.094019  0.003695  0.001155  0.004705
                                 0.000744 -0.002091  0.003595  0.002673  0.001231 -0.000747  0.004176  0.000654 -0.001648  0.001739
                                -0.001317 -0.002442 -0.000337 -0.000606 -0.000079  0.000160  0.000674  0.001041 -0.000461  0.000605
                                -0.002224 -0.179799 -0.001001 -0.112107 -0.045303 -0.417901  0.098490  0.001976 -0.005740  0.024095
                                -0.005482 -0.003789  0.025189  0.002392 -0.005452  0.002517  0.001242 -0.009812  0.005109  0.002416
                                 0.012665  0.001827 -0.002664 -0.001384 -0.000629  0.001238  0.000579  0.002291  0.000033  0.000212
                                 0.000368  0.002724  0.015533 -0.001245 -0.002087  0.011342  0.006714  0.000998  0.864062 -0.227930
                                -0.004286 -0.002593 -0.013533 -0.001409  0.009597  0.000620  0.006294 -0.002118 -0.001778  0.002553
                                -0.003679 -0.001888 -0.004208  0.001002  0.001517  0.000442  0.000982 -0.000130 -0.000179  0.001213
                                 0.002139  0.000045 -0.000285

  14.1   2    -0.5628  -12.0720 -0.002522 -0.375236  0.000447  0.017732 -0.026747  0.090259 -0.364582 -0.010032  0.025047 -0.028444
                                 0.081039  0.000737 -0.002870 -0.002364  0.003244 -0.001258  0.008126 -0.004232 -0.000037 -0.006653
                                 0.005905 -0.000453  0.007950 -0.007867  0.000128 -0.001849 -0.006340  0.002101 -0.000574  0.002562
                                 0.005583  0.537753  0.002857  0.180622  0.081752 -0.301894  0.627593  0.016394 -0.035599  0.030094
                                -0.066059 -0.002344  0.003043 -0.010115  0.009220 -0.002263 -0.012271  0.011024 -0.002749 -0.003053
                                 0.001990 -0.001178 -0.002147  0.001569 -0.000431  0.001289 -0.001645  0.001698 -0.000263  0.000873
                                -0.001085  0.036312 -0.000295 -0.011431 -0.014137 -0.109844  0.093905  0.001294 -0.005675  0.010047
                                 0.000306  0.002405 -0.004062  0.000413 -0.002067  0.000782  0.000177 -0.004662  0.001878 -0.001950
                                -0.003305 -0.000389 -0.000854  0.000408 -0.000218  0.000390 -0.000821  0.002185 -0.000089  0.000916
                                -0.000076 -0.000427  0.000738 -0.000336  0.015180  0.002014  0.001354  0.001861  0.058089 -0.070674
                                -0.000975 -0.002745  0.006022  0.004121  0.000324 -0.000264  0.003055 -0.001655 -0.001004  0.000970
                                -0.001967 -0.001205 -0.000590  0.001981 -0.000645 -0.000368  0.000836 -0.000104 -0.000325  0.000431
                                 0.000074 -0.000112 -0.000482

  15.1   2    -0.4467  -13.2452 -0.000588 -0.066452 -0.000384  0.010524  0.009089 -0.541058 -0.119805  0.004245 -0.005924  0.065467
                                -0.008150 -0.005761  0.000696 -0.012202 -0.011336  0.006159 -0.021609 -0.019126  0.012042  0.005233
                                 0.002578  0.003302 -0.006315 -0.007881 -0.001723  0.006365  0.003892  0.003326 -0.000124 -0.002808
                                -0.000350 -0.012459 -0.000325 -0.009106 -0.003221 -0.512817 -0.272983  0.005622  0.005815 -0.022072
                                -0.004953 -0.026295 -0.014724  0.009484  0.009082 -0.004805  0.018477  0.018163 -0.009614  0.011148
                                 0.012176 -0.007412 -0.001812 -0.004225 -0.001057  0.002111  0.000471 -0.001004 -0.000546  0.000282
                                 0.003088  0.166700  0.000929  0.091659  0.094883  0.199411 -0.113654  0.003476  0.003723  0.013725
                                -0.013353  0.010194 -0.020852 -0.005724 -0.002933  0.000108 -0.008212 -0.006400 -0.002609 -0.001701
                                -0.005317  0.000730  0.001204 -0.001767  0.000200  0.000882  0.002067 -0.001297  0.000273  0.000141
                                -0.000274 -0.003604 -0.072383 -0.000407 -0.029123 -0.048047 -0.003058 -0.005037 -0.200967 -0.312866
                                 0.001873  0.004618 -0.016993 -0.017822 -0.012124 -0.012792 -0.003462  0.005150  0.004479 -0.001458
                                 0.005684  0.003889 -0.000563 -0.001423  0.000971 -0.000033 -0.002085  0.000452  0.000925 -0.001122
                                -0.000025 -0.000048  0.000584

  16.1   +    -0.4327  -16.5917  0.002433  0.127239  0.002819 -0.028545 -0.011564  0.082560 -0.130977 -0.004929  0.013659 -0.051405
                                 0.068176 -0.010215 -0.010429 -0.015852 -0.016846  0.009578 -0.037726 -0.023221  0.014997 -0.019903
                                -0.006250  0.003434  0.002586  0.004089  0.001047 -0.003411 -0.003921  0.014515  0.000642 -0.002805
                                -0.000761 -0.022815  0.000078  0.004093  0.010030 -0.268123 -0.043938 -0.001017 -0.004921 -0.016481
                                -0.018218 -0.015066 -0.001457  0.001427  0.004039 -0.001744  0.005775  0.010547 -0.004478  0.006920
                                 0.003197 -0.000005 -0.001410 -0.001308 -0.000634  0.001157 -0.002284 -0.000444 -0.000151  0.000703
                                -0.008700 -0.346200 -0.001842 -0.166841 -0.147084  0.459294  0.495494  0.016032  0.020047  0.033594
                                 0.030232  0.035698  0.039394  0.008438 -0.000258 -0.002795  0.017099 -0.006936 -0.008109 -0.007407
                                -0.000451  0.001783  0.002262  0.004286  0.001069  0.000786  0.001081 -0.002113  0.000133  0.001842
                                 0.000136  0.010302  0.255550  0.008592  0.117286  0.145195  0.008574  0.017674  0.303053  0.694405
                                -0.004062 -0.007525  0.053534  0.130448  0.026491  0.064075 -0.052224 -0.046950 -0.009727 -0.045161
                                -0.039988 -0.008195 -0.010245 -0.014673 -0.001304 -0.006344 -0.004728 -0.000380 -0.002219 -0.002643
                                 0.001034  0.000045 -0.000725

                                   1 2py     1 2py     1 2py     1 2py     1 3d2-    1 3d1-    1 3d2-    1 3d1-    1 3d2-    1 3d1- 
                                   1 4f1-    1 4f2-    1 4f3-    1 4f1-    1 4f2-    1 4f3-    2 2py     2 2py     2 2py     2 2py  
                                   2 3d2-    2 3d1-    2 3d2-    2 3d1-    2 3d2-    2 3d1-    2 4f1-    2 4f2-    2 4f3-    2 4f1- 
                                   2 4f2-    2 4f3-    3 2py     3 2py     3 2py     3 2py     3 3d2-    3 3d1-    3 3d2-    3 3d1- 
                                   3 3d2-    3 3d1-    3 4f1-    3 4f2-    3 4f3-    3 4f1-    3 4f2-    3 4f3-    4 2py     4 2py  
                                   4 2py     4 2py     4 2py     4 3d2-    4 3d1-    4 3d2-    4 3d1-    4 3d2-    4 3d1-    4 4f1- 
                                   4 4f2-    4 4f3-    4 4f1-    4 4f2-    4 4f3- 

   1.2   2    -9.6726  -52.7084 -0.000028  0.000080  0.000527  0.000773 -0.000040 -0.000024 -0.000080  0.000387  0.000034  0.000660
                                 0.000039  0.000027 -0.000052 -0.000130 -0.000135  0.000038 -0.000005  0.000000 -0.000714 -0.000677
                                -0.000013 -0.000019  0.000033  0.000145 -0.000236  0.000232 -0.000003  0.000001 -0.000004 -0.000055
                                 0.000052  0.000007  0.000014  0.000041  0.001039 -0.000350  0.000021  0.000014 -0.000159 -0.000152
                                -0.000462 -0.000554 -0.000029 -0.000024 -0.000029  0.000338  0.000274  0.000154  0.999782 -0.001089
                                 0.000263  0.000585 -0.000592 -0.000336 -0.000756  0.000253  0.000567 -0.000082 -0.000005  0.000156
                                 0.000139  0.000038 -0.000388 -0.000371 -0.000106

   2.2   2    -0.7670  -16.7503  0.254991 -0.002586 -0.053120  0.006905  0.004891 -0.013400  0.005781 -0.014956 -0.005019  0.013650
                                 0.010380 -0.006692  0.001356  0.009825 -0.006732  0.002098  0.082308 -0.008585 -0.023776 -0.009491
                                 0.001100 -0.002684 -0.000630  0.001180 -0.000864  0.000396  0.000076  0.000046  0.000043 -0.001056
                                 0.000970 -0.000264  0.629355  0.003665 -0.014747  0.009099 -0.005149  0.003608 -0.015835 -0.001468
                                -0.008897 -0.007532  0.004903 -0.000224  0.001344  0.003597  0.003180  0.002247  0.000840  0.625712
                                -0.002996 -0.052857 -0.003126  0.010012  0.020819  0.007328  0.015329 -0.002952 -0.002829  0.005480
                                 0.004526  0.001403  0.002240  0.000940  0.000293

   3.2   2    -0.6303  -16.5240 -0.319056  0.004249  0.064589  0.007769 -0.003899  0.009296 -0.004827  0.012492  0.002194  0.002020
                                -0.010107  0.007134 -0.001705 -0.006192  0.004218 -0.001669 -0.159708  0.008290  0.009272 -0.006590
                                -0.001869  0.004345 -0.001577  0.004245 -0.003576  0.004467 -0.000891  0.000480 -0.000243  0.000867
                                -0.000182 -0.000053 -0.502743 -0.002358 -0.006520 -0.017845  0.002928 -0.007066  0.006922 -0.012785
                                 0.004204  0.004036 -0.003141  0.001684 -0.000812 -0.000646 -0.000193 -0.000037  0.005664  0.817493
                                -0.002526 -0.006434  0.005540 -0.004545 -0.008762 -0.003281 -0.006897  0.001271  0.002488 -0.001362
                                -0.001196 -0.000348 -0.001192 -0.001626 -0.000549

   4.2   2    -0.4174  -12.8113  0.397753  0.004519 -0.025093  0.013148 -0.011156  0.026282 -0.019435  0.042228 -0.002987  0.001761
                                 0.006378 -0.004846  0.001377 -0.004328  0.002806  0.000112  0.686792 -0.008631  0.026510  0.033990
                                 0.005295 -0.012752  0.011075 -0.026141  0.005717 -0.014569  0.004508 -0.002936  0.001312  0.001096
                                -0.000709  0.000552 -0.403273 -0.009753 -0.050256 -0.042729  0.000705  0.000897  0.006269  0.000334
                                 0.002339  0.006923 -0.001524 -0.000232 -0.000557 -0.005069 -0.000238 -0.000452  0.002616  0.154036
                                -0.000512  0.018853  0.011073 -0.007847 -0.013479 -0.006447 -0.010977 -0.001799 -0.002646 -0.002651
                                -0.002365 -0.000896 -0.001060 -0.001476  0.000068


 **********************************************************************************************************************************
 DATASETS  * FILE   NREC   LENGTH (MB)   RECORD NAMES
              1      19      324.16       500      610      700      900      950      970     1000      129      960     1100   
                                          VAR    BASINP    GEOM    SYMINP    ZMAT    AOBASIS   BASIS     P2S    ABASIS      S 
                                         1400     1410     1200     1210     1080     1600     1650     1300     1700   
                                           T        V       H0       H01     AOSYM     SMH    MOLCAS    ERIS     OPER   

              2       3        0.90       700     1000     2100   
                                         GEOM     BASIS     RHF  

 PROGRAMS   *        TOTAL        HF       INT
 CPU TIMES  *        13.71      5.95      7.72
 REAL TIME  *        17.46 SEC
 DISK USED  *         1.64 GB      
 GA USED    *         0.00 MB       (max)       0.00 MB       (current)
 **********************************************************************************************************************************


1PROGRAM * CCSD (Restricted open-shell coupled cluster)     Authors: C. Hampel, H.-J. Werner, 1991, M. Deegan, P.J. Knowles, 1992


 Convergence thresholds:  THRVAR = 1.00D-08  THRDEN = 1.00D-06

 CCSD(T)     terms to be evaluated (factor= 1.000)


 Number of core orbitals:           8 (   7   1 )
 Number of closed-shell orbitals:  11 (   8   3 )
 Number of active  orbitals:        1 (   1   0 )
 Number of external orbitals:     168 ( 107  61 )

 Memory could be reduced to 55.70 Mwords without degradation in triples

 Number of N-1 electron functions:              23
 Number of N-2 electron functions:             253
 Number of singly external CSFs:              2202
 Number of doubly external CSFs:           2786709
 Total number of CSFs:                     2788911

 Molecular orbitals read from record     2100.2  Type=RHF/CANONICAL (state 1.1)

 Integral transformation finished. Total CPU:   3.31 sec, npass=  1  Memory used:  13.76 MW

 Starting RMP2 calculation

 Wavefunction is spin-projected

 ITER.      SQ.NORM     CORR.ENERGY   TOTAL ENERGY   ENERGY CHANGE        DEN1      VAR(S)    VAR(P)  DIIS     TIME
   1      1.24839810    -0.81416527  -694.54936408    -0.81416527    -0.00330479  0.38D-04  0.15D-02  1  1     3.88
   2      1.25216468    -0.81777344  -694.55297224    -0.00360817    -0.00001319  0.11D-05  0.74D-05  2  2     4.14
   3      1.25236974    -0.81787920  -694.55307801    -0.00010576    -0.00000007  0.22D-07  0.30D-07  3  3     4.42
   4      1.25237433    -0.81788011  -694.55307891    -0.00000091     0.00000000  0.53D-09  0.15D-09  4  4     4.71

 Norm of t1 vector:      0.04958340      S-energy:    -0.00485201      T1 diagnostic:  0.00069667
 Norm of t2 vector:      0.49991581      P-energy:    -0.81302810
                                         Alpha-Beta:  -0.59492563
                                         Alpha-Alpha: -0.11389189
                                         Beta-Beta:   -0.10421058

 Spin contamination <S**2-Sz**2-Sz>     0.00000000
  Reference energy                   -693.735198804299
  RHF-RMP2 correlation energy          -0.817880109984
 !RHF-RMP2 energy                    -694.553078914283
 (NB above energy spin projected)

 Starting RCCSD calculation

 ITER.      SQ.NORM     CORR.ENERGY   TOTAL ENERGY   ENERGY CHANGE        DEN1      VAR(S)    VAR(P)  DIIS     TIME
   1      1.23225742    -0.79256298  -694.52776179    -0.79256298    -0.02384066  0.55D-02  0.45D-02  1  1    23.66
   2      1.25155656    -0.81324862  -694.54844743    -0.02068564    -0.00231337  0.26D-03  0.80D-03  2  2    42.57
   3      1.26039638    -0.81660375  -694.55180256    -0.00335513    -0.00033861  0.21D-03  0.72D-04  3  3    61.49
   4      1.26597117    -0.81814592  -694.55334473    -0.00154217    -0.00007458  0.45D-04  0.19D-04  4  4    80.44
   5      1.26901513    -0.81858762  -694.55378642    -0.00044170    -0.00002240  0.22D-04  0.34D-05  5  5    99.40
   6      1.27100572    -0.81877684  -694.55397564    -0.00018922    -0.00000598  0.49D-05  0.12D-05  6  6   118.37
   7      1.27198912    -0.81884941  -694.55404822    -0.00007257    -0.00000172  0.15D-05  0.30D-06  6  2   137.36
   8      1.27252914    -0.81888394  -694.55408275    -0.00003453    -0.00000034  0.23D-06  0.67D-07  6  1   156.32
   9      1.27268565    -0.81888943  -694.55408823    -0.00000548    -0.00000007  0.47D-07  0.13D-07  6  3   175.27
  10      1.27271461    -0.81888990  -694.55408870    -0.00000048    -0.00000002  0.19D-07  0.24D-08  6  1   194.24
  11      1.27273157    -0.81888915  -694.55408796     0.00000075     0.00000000  0.28D-08  0.11D-08  6  4   213.20

 Norm of t1 vector:      0.14305709      S-energy:    -0.00525955      T1 diagnostic:  0.01911611
                                                                       D1 diagnostic:  0.05623800
 Norm of t2 vector:      0.50226113      P-energy:    -0.81362960
                                         Alpha-Beta:  -0.62329488
                                         Alpha-Alpha: -0.09953220
                                         Beta-Beta:   -0.09080252

 Singles amplitudes (print threshold =  0.500E-01):

         I         SYM. A    A   T(IA) [Beta-Beta]

         8         1         1     -0.07257052

 Spin contamination <S**2-Sz**2-Sz>     0.00000000

 Memory could be reduced to 60.25 Mwords without degradation in triples
 

 RESULTS
 =======

  Reference energy                   -693.735198804299
  RCCSD singles energy                 -0.005259553549
  RCCSD pair energy                    -0.813629598004
  RCCSD correlation energy             -0.818889151553
  Triples (T) contribution             -0.042093811929
  Total correlation energy             -0.860982963482
 
  RHF-RCCSD energy                   -694.554087955853
  RHF-RCCSD[T] energy                -694.597847515503
  RHF-RCCSD-T energy                 -694.595489492977
 !RHF-RCCSD(T) energy                -694.596181767782

 Program statistics:

 Available memory in ccsd:               999998628
 Min. memory needed in ccsd:               8082079
 Max. memory used in ccsd:                11529320
 Max. memory used in cckext:              10530542 (11 integral passes)
 Max. memory used in cckint:              13759568 ( 1 integral passes)



 **********************************************************************************************************************************
 DATASETS  * FILE   NREC   LENGTH (MB)   RECORD NAMES
              1      19      324.16       500      610      700      900      950      970     1000      129      960     1100   
                                          VAR    BASINP    GEOM    SYMINP    ZMAT    AOBASIS   BASIS     P2S    ABASIS      S 
                                         1400     1410     1200     1210     1080     1600     1650     1300     1700   
                                           T        V       H0       H01     AOSYM     SMH    MOLCAS    ERIS     OPER   

              2       3        0.90       700     1000     2100   
                                         GEOM     BASIS     RHF  

 PROGRAMS   *        TOTAL  RCCSD(T)        HF       INT
 CPU TIMES  *       602.54    588.82      5.95      7.72
 REAL TIME  *       614.47 SEC
 DISK USED  *         1.93 GB      
 GA USED    *         0.00 MB       (max)       0.00 MB       (current)
 **********************************************************************************************************************************
 SETTING E_NCOAR(1)     =      -694.59618177  AU                              

 *** cp calculation for NCO

 Dummy atoms: AR


 Recomputing one-electron integrals since nuclear charges changed

1PROGRAM * SEWARD (Integral evaluation for generally contracted gaussian basis sets)     Author: Roland Lindh, 1990

 Geometry written to block  1 of record 700

 Orientation using atomic masses  
 Molecule type: Asymmetric top
 Symmetry elements: Y
 Rotational constants:       3.1045927      2.9503066     59.3669551 GHz  (calculated with average atomic masses)

 Point group  Cs  



 ATOMIC COORDINATES

 NR  ATOM    CHARGE       X              Y              Z

   1  C       6.00    0.254809924    0.000000000    2.349395124
   2  N       7.00   -0.653540459    0.000000000    4.493006173
   3  O       8.00    1.121476158    0.000000000    0.304154270
   4  AR      0.00   -0.296623673    0.000000000   -2.403551122

 Bond lengths in Bohr (Angstrom)

 1-2  2.328125586  1-3  2.221288030  1-4  4.784827796  3-4  3.056579072
     (1.231991000)     (1.175455000)     (2.532021818)     (1.617471982)

 Bond angles

  1-3-4  129.39301818   1-4-3   21.02445815   2-1-3  180.00000000   2-1-4  150.41747634

  3-1-4   29.58252366


 BASIS DATA

   Nr Sym  Nuc  Type         Exponents   Contraction coefficients

   1.1 A'    1  1s         8236.000000     0.000531   -0.000113    0.000000    0.000000
   2.1 A'                  1235.000000     0.004108   -0.000878    0.000000    0.000000
   3.1 A'                   280.800000     0.021087   -0.004540    0.000000    0.000000
   4.1 A'                    79.270000     0.081853   -0.018133    0.000000    0.000000
                             25.590000     0.234817   -0.055760    0.000000    0.000000
                              8.997000     0.434401   -0.126895    0.000000    0.000000
                              3.319000     0.346129   -0.170352    0.000000    0.000000
                              0.905900     0.039378    0.140382    1.000000    0.000000
                              0.364300    -0.008983    0.598684    0.000000    0.000000
                              0.128500     0.002385    0.395389    0.000000    1.000000
   5.1 A'    1  1s            0.044020     1.000000
   6.1 A'    1  2px          18.710000     0.014031
                              4.133000     0.086866
                              1.200000     0.290216
                              0.382700     0.501008
                              0.120900     0.343406
   7.1 A'    1  2pz          18.710000     0.014031
                              4.133000     0.086866
                              1.200000     0.290216
                              0.382700     0.501008
                              0.120900     0.343406
   8.1 A'    1  2px          18.710000     0.000000
                              4.133000     0.000000
                              1.200000     0.000000
                              0.382700     1.000000
                              0.120900     0.000000
   9.1 A'    1  2pz          18.710000     0.000000
                              4.133000     0.000000
                              1.200000     0.000000
                              0.382700     1.000000
                              0.120900     0.000000
  10.1 A'    1  2px          18.710000     0.000000
                              4.133000     0.000000
                              1.200000     0.000000
                              0.382700     0.000000
                              0.120900     1.000000
  11.1 A'    1  2pz          18.710000     0.000000
                              4.133000     0.000000
                              1.200000     0.000000
                              0.382700     0.000000
                              0.120900     1.000000
  12.1 A'    1  2px           0.035690     1.000000
  13.1 A'    1  2pz           0.035690     1.000000
  14.1 A'    1  3d0           1.097000     1.000000
  15.1 A'    1  3d1+          1.097000     1.000000
  16.1 A'    1  3d2+          1.097000     1.000000
  17.1 A'    1  3d0           0.318000     1.000000
  18.1 A'    1  3d1+          0.318000     1.000000
  19.1 A'    1  3d2+          0.318000     1.000000
  20.1 A'    1  3d0           0.100000     1.000000
  21.1 A'    1  3d1+          0.100000     1.000000
  22.1 A'    1  3d2+          0.100000     1.000000
  23.1 A'    1  4f1+          0.761000     1.000000
  24.1 A'    1  4f0           0.761000     1.000000
  25.1 A'    1  4f3+          0.761000     1.000000
  26.1 A'    1  4f2+          0.761000     1.000000
  27.1 A'    1  4f1+          0.268000     1.000000
  28.1 A'    1  4f0           0.268000     1.000000
  29.1 A'    1  4f3+          0.268000     1.000000
  30.1 A'    1  4f2+          0.268000     1.000000
  31.1 A'    2  1s        11420.000000     0.000523   -0.000115    0.000000    0.000000
  32.1 A'                  1712.000000     0.004045   -0.000895    0.000000    0.000000
  33.1 A'                   389.300000     0.020775   -0.004624    0.000000    0.000000
  34.1 A'                   110.000000     0.080727   -0.018528    0.000000    0.000000
                             35.570000     0.233074   -0.057339    0.000000    0.000000
                             12.540000     0.433501   -0.132076    0.000000    0.000000
                              4.644000     0.347472   -0.172510    0.000000    0.000000
                              1.293000     0.041262    0.151814    1.000000    0.000000
                              0.511800    -0.008508    0.599944    0.000000    0.000000
                              0.178700     0.002384    0.387462    0.000000    1.000000
  35.1 A'    2  1s            0.057600     1.000000
  36.1 A'    2  2px          26.630000     0.014670
                              5.948000     0.091764
                              1.742000     0.298683
                              0.555000     0.498487
                              0.172500     0.337023
  37.1 A'    2  2pz          26.630000     0.014670
                              5.948000     0.091764
                              1.742000     0.298683
                              0.555000     0.498487
                              0.172500     0.337023
  38.1 A'    2  2px          26.630000     0.000000
                              5.948000     0.000000
                              1.742000     0.000000
                              0.555000     1.000000
                              0.172500     0.000000
  39.1 A'    2  2pz          26.630000     0.000000
                              5.948000     0.000000
                              1.742000     0.000000
                              0.555000     1.000000
                              0.172500     0.000000
  40.1 A'    2  2px          26.630000     0.000000
                              5.948000     0.000000
                              1.742000     0.000000
                              0.555000     0.000000
                              0.172500     1.000000
[...]
                                -0.000057  0.000060 -0.000033 -0.000012  0.000005 -0.000008  0.000022  0.000024 -0.000027 -0.000014
                                -0.000197  0.998825 -0.001958  0.000689  0.002989 -0.001077 -0.000023 -0.000157 -0.000050 -0.000415
                                 0.000030  0.000217  0.000349  0.001069 -0.000128 -0.000178 -0.000087 -0.000016  0.000009  0.000016
                                 0.000005 -0.000002  0.000338  0.000221  0.000046 -0.000031 -0.000030 -0.000002 -0.000017  0.000040
                                 0.000034  0.000003  0.000029

   3.1   2    -9.5721  -47.7331  0.000051  0.000186  0.000079  0.000174  0.000043  0.000100  0.000111  0.000277 -0.000573  0.000173
                                -0.003982  0.000297 -0.001061 -0.000073 -0.000068  0.000043  0.000360  0.000527 -0.000167  0.000877
                                 0.000837 -0.000109  0.000037  0.000000  0.000031 -0.000071 -0.000019  0.000022 -0.000082  0.000006
                                 0.000002  0.000008 -0.000013  0.002334  0.001077  0.000029  0.000069 -0.000046 -0.000315 -0.000297
                                -0.000645 -0.000214  0.000310 -0.000006 -0.000025  0.000007  0.000227  0.000121 -0.000058 -0.000308
                                 0.000077 -0.000221 -0.000002 -0.000037  0.000006 -0.000018 -0.000032  0.000031 -0.000026  0.000108
                                -0.000008 -0.000027  0.000000 -0.000778  0.000260  0.000016  0.000024 -0.000058 -0.000021  0.000843
                                -0.001889  0.000114  0.000707 -0.000013  0.000010  0.000017  0.000016  0.000007 -0.000081  0.001083
                                 0.000515 -0.000186  0.000013  0.000027 -0.000017 -0.000011 -0.000032 -0.000372  0.000095  0.000124
                                 0.000061  0.000377  0.000661 -0.000130 -0.002023 -0.001868  0.905545 -0.422926 -0.001628  0.000540
                                 0.000832 -0.000299  0.000549 -0.002568 -0.000570 -0.000096  0.000270 -0.000506 -0.000223 -0.000080
                                 0.000097  0.000047 -0.000753 -0.000174 -0.000074 -0.000009  0.000009  0.000008  0.000025 -0.000124
                                 0.000123 -0.000058 -0.000193

   4.1   2    -9.5720  -47.7317  0.000304  0.001095  0.000198 -0.000877 -0.001096  0.000065 -0.000075  0.000138 -0.000734 -0.000600
                                 0.000197 -0.000191  0.000476 -0.000027  0.000102  0.000068 -0.001182  0.000129 -0.000322  0.000538
                                -0.000879 -0.000149 -0.000086  0.000013  0.000066  0.000031 -0.000155  0.000570 -0.000310  0.000431
                                -0.000041 -0.000151 -0.000046  0.000703  0.000755 -0.000057  0.000077  0.000172 -0.000240  0.001097
                                -0.001462  0.000271 -0.000504 -0.000008  0.000037  0.000018  0.000094 -0.000341 -0.000050  0.000388
                                -0.000440  0.000170  0.000001  0.000012 -0.000002 -0.000013  0.000108  0.000009  0.000002  0.000009
                                -0.000203 -0.000699 -0.000095  0.005824  0.002332  0.000187  0.000034 -0.000453  0.000478 -0.002756
                                -0.009191  0.000055  0.000427 -0.000020 -0.000055 -0.000022  0.000573  0.000540  0.000217  0.001420
                                 0.003501  0.000917 -0.000044  0.000018  0.000033  0.000003 -0.000396 -0.000427 -0.000171 -0.000239
                                 0.000236  0.001556  0.002870 -0.000124 -0.011774  0.000442  0.422136  0.903900 -0.002952 -0.006627
                                 0.001494  0.003336 -0.000969 -0.002057 -0.000052  0.000023 -0.001736 -0.001546 -0.000414  0.000275
                                 0.000249  0.000071 -0.000834 -0.000842 -0.000028 -0.000006 -0.000041 -0.000016 -0.000038 -0.000693
                                -0.000318 -0.000030 -0.000220

   5.1   2    -1.2777  -14.7909  0.000089  0.000350  0.000234 -0.006822  0.004792  0.000119 -0.000279 -0.001456  0.002176  0.000376
                                 0.004082  0.000115 -0.003057  0.000116 -0.000001 -0.000012 -0.001145  0.000153 -0.000364 -0.006064
                                 0.000778  0.000123 -0.000103  0.000158 -0.000082  0.000145  0.001696 -0.000212 -0.000296  0.000339
                                 0.000251  0.000893  0.000129  0.002451  0.000444  0.000064 -0.000045 -0.000223  0.000105  0.000508
                                 0.002269  0.001065  0.002144  0.000010  0.000037  0.000038 -0.000511  0.000044 -0.000370 -0.000340
                                 0.000184 -0.000055 -0.000056  0.000076 -0.000004  0.000029  0.000159  0.000013 -0.000125  0.000119
                                 0.000191  0.000655 -0.000128 -0.001296 -0.004552  0.000040  0.000001 -0.000555 -0.000444  0.001550
                                 0.011585 -0.000252 -0.006350  0.000051  0.000065 -0.000010  0.000253 -0.000271  0.000199 -0.002067
                                -0.001531  0.000526 -0.000005  0.000021  0.000049  0.000026  0.000731  0.000349 -0.000232  0.000254
                                -0.000192 -0.001220  0.997828  0.000130  0.009446  0.001492  0.000286 -0.000119  0.000892 -0.000364
                                -0.000422  0.000162  0.004264  0.011638 -0.001480 -0.001942  0.000279  0.000798  0.000285  0.000017
                                -0.000069 -0.000035  0.003669  0.002671  0.000530 -0.000096 -0.000097 -0.000003 -0.000061  0.000711
                                 0.000404  0.000041  0.000350

   6.1   2    -0.5912  -12.3748  0.000069  0.000258  0.000328  0.002934 -0.015276  0.000130  0.000014  0.001037 -0.002008 -0.006836
                                 0.005572 -0.005964  0.002883 -0.000150 -0.000020  0.000048 -0.000599 -0.001190 -0.001088 -0.004057
                                -0.007161 -0.001702  0.000256 -0.000032  0.000003 -0.000098 -0.000358 -0.000827 -0.000686  0.001024
                                 0.000017  0.000057 -0.000088 -0.003828  0.001220 -0.000045  0.000003  0.000383 -0.000113  0.005286
                                -0.000741  0.003827 -0.000850  0.000007  0.000040  0.000023  0.000238 -0.000797 -0.000022  0.001780
                                -0.000600  0.002297  0.000093  0.000045 -0.000048  0.000002 -0.000058 -0.000573  0.000294 -0.000206
                                 0.000127  0.000469  0.000461 -0.004452 -0.027777 -0.000155 -0.000283  0.000196 -0.000091  0.000449
                                -0.002585  0.010768  0.018387 -0.000039 -0.000006 -0.000018 -0.001103 -0.001025 -0.000186  0.000878
                                 0.004994  0.002065  0.000201  0.000135  0.000093  0.000102  0.001088  0.000164 -0.000320  0.000539
                                 0.000193  0.001191  0.002105 -0.000509 -0.010749  0.050529 -0.000102 -0.000369  0.188489  0.980630
                                 0.000089  0.000441  0.001681  0.003021  0.007163  0.022922 -0.001288 -0.000088 -0.000088  0.000271
                                 0.000048  0.000026  0.004197  0.001929  0.000852  0.000100  0.000055 -0.000005 -0.000017  0.000434
                                 0.000196  0.000059  0.000300

   7.1   2    -0.5912  -12.3737  0.000192  0.000717  0.000120  0.000986 -0.003473  0.000366  0.000338 -0.002278 -0.003839 -0.002229
                                -0.023465 -0.000288 -0.006320  0.000030 -0.000006  0.000056  0.002453  0.003013 -0.001685  0.007432
                                 0.004256 -0.001649 -0.000055 -0.000217  0.000039  0.000069  0.001230  0.000790 -0.000857  0.000483
                                 0.000067  0.000236 -0.000047  0.010568  0.006147  0.000103  0.000171 -0.000408 -0.001052 -0.001302
                                -0.003679 -0.000866  0.001804 -0.000033 -0.000031  0.000061  0.000738  0.000153 -0.000540 -0.001876
                                -0.000356 -0.001067 -0.000022 -0.000065  0.000021 -0.000057  0.000344  0.000411 -0.000199  0.000435
                                 0.000069  0.000247  0.000138 -0.008319 -0.000558 -0.000022 -0.000076  0.000048  0.000015  0.005772
                                -0.007742  0.004848  0.011141 -0.000008 -0.000051  0.000031 -0.000223  0.000120 -0.000419  0.008544
                                 0.007140 -0.000305  0.000048  0.000075 -0.000028 -0.000021  0.000554  0.000607  0.000170 -0.000232
                                 0.000235  0.001496  0.002727 -0.000352 -0.013219  0.000163  0.000948 -0.000819  0.984750 -0.191439
                                -0.001351  0.001093 -0.011556 -0.007344  0.012084 -0.001971  0.000378 -0.001448 -0.000484 -0.000109
                                 0.000278  0.000097 -0.003192 -0.000351 -0.000085  0.000100 -0.000071  0.000030  0.000107 -0.000266
                                 0.000316 -0.000078 -0.000291

                                   1 2py     1 2py     1 2py     1 2py     1 3d2-    1 3d1-    1 3d2-    1 3d1-    1 3d2-    1 3d1- 
                                   1 4f1-    1 4f2-    1 4f3-    1 4f1-    1 4f2-    1 4f3-    2 2py     2 2py     2 2py     2 2py  
                                   2 3d2-    2 3d1-    2 3d2-    2 3d1-    2 3d2-    2 3d1-    2 4f1-    2 4f2-    2 4f3-    2 4f1- 
                                   2 4f2-    2 4f3-    3 2py     3 2py     3 2py     3 2py     3 3d2-    3 3d1-    3 3d2-    3 3d1- 
                                   3 3d2-    3 3d1-    3 4f1-    3 4f2-    3 4f3-    3 4f1-    3 4f2-    3 4f3-    4 2py     4 2py  
                                   4 2py     4 2py     4 2py     4 3d2-    4 3d1-    4 3d2-    4 3d1-    4 3d2-    4 3d1-    4 4f1- 
                                   4 4f2-    4 4f3-    4 4f1-    4 4f2-    4 4f3- 

   1.2   2    -9.5721  -47.7332 -0.000036  0.000079  0.000578  0.000845 -0.000027 -0.000013 -0.000167  0.000296 -0.000021  0.000588
                                 0.000051  0.000037 -0.000039 -0.000051 -0.000072 -0.000042 -0.000001 -0.000002 -0.000689 -0.000715
                                -0.000007 -0.000015  0.000001  0.000120 -0.000237  0.000242 -0.000002  0.000001 -0.000008 -0.000046
                                 0.000068  0.000010 -0.000027  0.000005  0.000562 -0.000402  0.000019  0.000020 -0.000089 -0.000085
                                -0.000144 -0.000177 -0.000036 -0.000027 -0.000017  0.000314  0.000236  0.000081  0.999567 -0.001317
                                 0.000684  0.001180 -0.000697 -0.000169 -0.000371  0.000040  0.000085  0.000011  0.000110 -0.000002
                                 0.000017  0.000003 -0.000155 -0.000166 -0.000046

   2.2   2    -0.5912  -12.3734 -0.000079  0.000359  0.004413  0.005951 -0.000050 -0.000033 -0.000071  0.001623 -0.000082  0.003779
                                 0.000007  0.000025 -0.000019 -0.000545 -0.001061  0.000358 -0.000001 -0.000015 -0.004157 -0.005293
                                -0.000041 -0.000058  0.000242  0.000605 -0.001294  0.001423 -0.000021 -0.000016 -0.000003 -0.000234
                                 0.000147  0.000060 -0.000039  0.000274  0.000967 -0.002032  0.000047  0.000013 -0.000402 -0.000198
                                -0.001378 -0.001066 -0.000128 -0.000098 -0.000103  0.000334  0.000097  0.000453  0.001540  1.004606
                                -0.002159 -0.009390  0.010332 -0.000322 -0.000893  0.000068  0.000188  0.000102  0.000626  0.000048
                                 0.000064  0.000009 -0.000363 -0.000323 -0.000066


 **********************************************************************************************************************************
 DATASETS  * FILE   NREC   LENGTH (MB)   RECORD NAMES
              1      19      321.31       500      610      700      900      950      970     1000      129      960     1100   
                                          VAR    BASINP    GEOM    SYMINP    ZMAT    AOBASIS   BASIS     P2S    ABASIS      S 
                                         1400     1410     1200     1210     1080     1600     1650     1300     1700   
                                           T        V       H0       H01     AOSYM     SMH    MOLCAS    ERIS     OPER   

              2       5        2.39       700     1000     2100     2101     2102   
                                         GEOM     BASIS     RHF      RHF      RHF  

 PROGRAMS   *        TOTAL        HF       INT  RCCSD(T)        HF       INT  RCCSD(T)        HF       INT  RCCSD(T)        HF
 CPU TIMES  *      1667.36      1.93      0.03    199.40      3.42      0.04    608.04      5.61      7.74     31.55      2.28
 REAL TIME  *      1704.11 SEC
 DISK USED  *         1.93 GB      
 GA USED    *         0.00 MB       (max)       0.00 MB       (current)
 **********************************************************************************************************************************


1PROGRAM * CCSD (Restricted open-shell coupled cluster)     Authors: C. Hampel, H.-J. Werner, 1991, M. Deegan, P.J. Knowles, 1992


 Convergence thresholds:  THRVAR = 1.00D-08  THRDEN = 1.00D-06

 CCSD(T)     terms to be evaluated (factor= 1.000)


 Number of core orbitals:           5 (   4   1 )
 Number of closed-shell orbitals:   4 (   3   1 )
 Number of external orbitals:     179 ( 116  63 )

 Memory could be reduced to 33.39 Mwords without degradation in triples

 Number of N-1 electron functions:               8
 Number of N-2 electron functions:              28
 Number of singly external CSFs:               822
 Number of doubly external CSFs:            357532
 Total number of CSFs:                      358354

 Molecular orbitals read from record     2102.2  Type=RHF/CANONICAL (state 1.1)

 Integral transformation finished. Total CPU:   1.38 sec, npass=  1  Memory used:   5.18 MW

 Starting RMP2 calculation

 Wavefunction is spin-projected

 ITER.      SQ.NORM     CORR.ENERGY   TOTAL ENERGY   ENERGY CHANGE        DEN1      VAR(S)    VAR(P)  DIIS     TIME
   1      1.06217139    -0.21236496  -527.02585711    -0.21236496    -0.00068956  0.13D-10  0.24D-03  1  1     1.70
   2      1.06271874    -0.21310084  -527.02659300    -0.00073589    -0.00000031  0.12D-12  0.12D-06  2  2     1.73
   3      1.06272572    -0.21310595  -527.02659810    -0.00000510     0.00000000  0.14D-14  0.11D-09  3  3     1.76
   4      1.06272577    -0.21310596  -527.02659811    -0.00000001     0.00000000  0.16D-16  0.14D-12  4  4     1.78

 Norm of t1 vector:      0.00002942      S-energy:     0.00000000      T1 diagnostic:  0.00000735
 Norm of t2 vector:      0.25045112      P-energy:    -0.21310595
                                         Alpha-Beta:  -0.16020263
                                         Alpha-Alpha: -0.02645166
                                         Beta-Beta:   -0.02645166

 Spin contamination <S**2-Sz**2-Sz>     0.00000000
  Reference energy                   -526.813492152948
  RHF-RMP2 correlation energy          -0.213105955740
 !RHF-RMP2 energy                    -527.026598108688
 (NB above energy spin projected)

 Starting RCCSD calculation

 ITER.      SQ.NORM     CORR.ENERGY   TOTAL ENERGY   ENERGY CHANGE        DEN1      VAR(S)    VAR(P)  DIIS     TIME
   1      1.06934471    -0.22492516  -527.03841731    -0.22492516    -0.00460349  0.36D-04  0.12D-02  1  1     3.91
   2      1.07298018    -0.22991030  -527.04340246    -0.00498514    -0.00008043  0.20D-05  0.23D-04  2  2     6.05
   3      1.07331159    -0.23016303  -527.04365518    -0.00025272    -0.00000303  0.16D-06  0.85D-06  3  3     8.17
   4      1.07337938    -0.23020712  -527.04369927    -0.00004410    -0.00000015  0.16D-07  0.40D-07  4  4    10.29
   5      1.07338883    -0.23021177  -527.04370393    -0.00000465    -0.00000001  0.21D-08  0.17D-08  5  5    12.43
   6      1.07338968    -0.23021146  -527.04370361     0.00000031     0.00000000  0.14D-09  0.11D-09  6  6    14.57

 Norm of t1 vector:      0.00770904      S-energy:     0.00000004      T1 diagnostic:  0.00192726
                                                                       D1 diagnostic:  0.00292660
 Norm of t2 vector:      0.27079559      P-energy:    -0.23021149
                                         Alpha-Beta:  -0.17888170
                                         Alpha-Alpha: -0.02566490
                                         Beta-Beta:   -0.02566490

 Spin contamination <S**2-Sz**2-Sz>     0.00000000

 Memory could be reduced to 32.07 Mwords without degradation in triples
 

 RESULTS
 =======

  Reference energy                   -526.813492152948
  RCCSD singles energy                  0.000000035900
  RCCSD pair energy                    -0.230211493688
  RCCSD correlation energy             -0.230211457788
  Triples (T) contribution             -0.007489527995
  Total correlation energy             -0.237700985783
 
  RHF-RCCSD energy                   -527.043703610736
  RHF-RCCSD[T] energy                -527.051205854110
  RHF-RCCSD-T energy                 -527.051196081273
 !RHF-RCCSD(T) energy                -527.051193138731

 Program statistics:

 Available memory in ccsd:               999999732
 Min. memory needed in ccsd:               1447103
 Max. memory used in ccsd:                 1828065
 Max. memory used in cckext:               2330767 ( 6 integral passes)
 Max. memory used in cckint:               5179241 ( 1 integral passes)



 **********************************************************************************************************************************
 DATASETS  * FILE   NREC   LENGTH (MB)   RECORD NAMES
              1      19      321.31       500      610      700      900      950      970     1000      129      960     1100   
                                          VAR    BASINP    GEOM    SYMINP    ZMAT    AOBASIS   BASIS     P2S    ABASIS      S 
                                         1400     1410     1200     1210     1080     1600     1650     1300     1700   
                                           T        V       H0       H01     AOSYM     SMH    MOLCAS    ERIS     OPER   

              2       5        2.39       700     1000     2100     2101     2102   
                                         GEOM     BASIS     RHF      RHF      RHF  

 PROGRAMS   *        TOTAL  RCCSD(T)        HF       INT  RCCSD(T)        HF       INT  RCCSD(T)        HF       INT  RCCSD(T)
 CPU TIMES  *      1698.92     31.56      1.93      0.03    199.40      3.42      0.04    608.04      5.61      7.74     31.55
 REAL TIME  *      1736.53 SEC
 DISK USED  *         1.93 GB      
 GA USED    *         0.00 MB       (max)       0.00 MB       (current)
 **********************************************************************************************************************************
 SETTING E_AR(2)        =      -527.05119314  AU                              
 SETTING DE_CP(2)       =     37257.40176356  CM-1                            
 SETTING R(2)           =         2.60000000  ANGSTROM                        
 SETTING RARQ           =         2.70000000  ANGSTROM                        
                                                                                                                                                                                                                                                                
 Result for angle 30

      R       E_CP      E_COMPLEX        E_NCO          E_AR
    2.5   47879.06   -694.5961818   -167.7626240   -527.0517108
    2.6   37257.40   -694.6438891   -167.7624532   -527.0511931
                                                  

        RCCSD(T)        HF-SCF          RCCSD(T)        HF-SCF          RCCSD(T)        HF-SCF          RCCSD(T)        HF-SCF  
   -527.05119314   -526.81349215   -167.76245320   -167.18147326   -694.64388912   -693.78204041   -527.05171080   -526.81350290
 **********************************************************************************************************************************
 Variable memory released
