
 Primary working directories    : /tmp/yuant
 Secondary working directories  : /tmp/yuant
 Wavefunction directory         : /home/yuant/wfu/
 Main file repository           : /tmp/yuant/

 ARCHNAME  : Linux/x86_64
 FC        : /opt/intel/compilerpro-12.0.1.107/bin/intel64/ifort
 FCVERSION : 12.0.0
 BLASLIB   : 
 id        : scu

 Nodes     nprocs
 linux-en55    1
 ga_uses_ma=false, calling ma_init with nominal heap.
 GA-space will be limited to   8.0 MW (determined by -G option)

 Using customized tuning parameters: mindgm=4; mindgv=4; mindgc=1; mindgr=1; noblas=0; mincuda=1000; minvec=7
 default implementation of scratch files=df  

 MEMORY,1000,M
 print, basis, orbitals
 angstrom
 geometry={
 q1
 q2,q1,rqq
 C,q1,rcq1,q2,acq2
 N,q1,rnq1,q2,anq2,C,dnc
 O,q1,roq1,q2,aoq2,C,doc
 Ar,q1,rarq,O,aaro,q2,darq
 }
 rqq=1.0
 rcq1=0.036898
 rnq1=1.268889
 roq1=1.138557
 acq2=90
 anq2=90
 aoq2=90
 dnc=0
 doc=180
 darq=180                                                                        ! variables always fixed
  
 rarq=2.7                                                                        ! scan
 aaro=30                                                                         ! fixed here
  
 basis=cc-pvdz
 set,charge=-1
 {hf
 save,2100.2
 }
  
 basis=aug-cc-pvtz
 set,charge=0
 text,calculation for complex
 {hf
 open,16.1
 wf,39,1,1                                                                       ! 1: A' state in Cs group
 start,2100.2
 }
 rccsd(t)
 e_NCOAr=energy
  
 text,cp calculation for NCO
 dummy,Ar
 {hf
 open,9.1
 wf,21,1,1
 }
 rccsd(t)
 e_NCO=energy
  
 text, cp calculation for Ar
 dummy,N,C,O
 hf
 rccsd(t)
 e_Ar=energy
  
 de_cp=(e_NCOAr-e_NCO-e_Ar)*tocm

 Variables initialized (664), CPU time= 0.00 sec
 Commands  initialized (462), CPU time= 0.00 sec, 486 directives.
 Default parameters read. Elapsed time= 0.01 sec

 Checking input...
 Passed
1


                                         ***  PROGRAM SYSTEM MOLPRO  ***
                         Copyright, University College Cardiff Consultants Limited, 2008

                                    Version 2010.1 linked 26 Jan 2011 12:51:57


 **********************************************************************************************************************************
 LABEL *                                                                                 
 Linux-3.4.6-2.10-desktop/linux-en55(x86_64) 64 bit mpp version                          DATE: 05-Dec-18          TIME: 02:18:42  
 **********************************************************************************************************************************

 Patch level:      13
 **********************************************************************************************************************************

 ZUNIT=ANG
 
 SETTING RQQ            =         1.00000000                                  
 SETTING RCQ1           =         0.03689800                                  
 SETTING RNQ1           =         1.26888900                                  
 SETTING ROQ1           =         1.13855700                                  
 SETTING ACQ2           =        90.00000000                                  
 SETTING ANQ2           =        90.00000000                                  
 SETTING AOQ2           =        90.00000000                                  
 SETTING DNC            =         0.00000000                                  
 SETTING DOC            =       180.00000000                                  
 SETTING DARQ           =       180.00000000                                  
 SETTING RARQ           =         2.70000000                                  
 SETTING AARO           =        30.00000000                                  

 Variable memory set to 1000000000 words,  buffer space   230000 words

 SETTING BASIS          =    CC-PVDZ
 SETTING CHARGE         =        -1.00000000                                  


 Recomputing integrals since basis changed


 Using spherical harmonics

 Library entry C      S cc-pVDZ              selected for orbital group  1
 Library entry C      P cc-pVDZ              selected for orbital group  1
 Library entry C      D cc-pVDZ              selected for orbital group  1
 Library entry N      S cc-pVDZ              selected for orbital group  2
 Library entry N      P cc-pVDZ              selected for orbital group  2
 Library entry N      D cc-pVDZ              selected for orbital group  2
 Library entry O      S cc-pVDZ              selected for orbital group  3
 Library entry O      P cc-pVDZ              selected for orbital group  3
 Library entry O      D cc-pVDZ              selected for orbital group  3
 Library entry AR     S cc-pVDZ              selected for orbital group  4
 Library entry AR     P cc-pVDZ              selected for orbital group  4
 Library entry AR     D cc-pVDZ              selected for orbital group  4

1PROGRAM * SEWARD (Integral evaluation for generally contracted gaussian basis sets)     Author: Roland Lindh, 1990

 Geometry written to block  1 of record 700

 Orientation using atomic masses  
 Molecule type: Asymmetric top
 Symmetry elements: Y
 Rotational constants:       2.7496069      2.6240581     57.4686891 GHz  (calculated with average atomic masses)

 Point group  Cs  



 ATOMIC COORDINATES

 NR  ATOM    CHARGE       X              Y              Z

   1  C       6.00    0.239877581    0.000000000    2.536036967
   2  N       7.00   -0.700087432    0.000000000    4.665974647
   3  O       8.00    1.136707650    0.000000000    0.503842011
   4  AR     18.00   -0.281913872    0.000000000   -2.600290802

 Bond lengths in Bohr (Angstrom)

 1-2  2.328125586  1-3  2.221288030  3-4  3.412935327
     (1.231991000)     (1.175455000)     (1.806047591)

 Bond angles

  1-3-4  131.62670082   2-1-3  180.00000000


 BASIS DATA

   Nr Sym  Nuc  Type         Exponents   Contraction coefficients

   1.1 A'    1  1s         6665.000000     0.000692   -0.000146    0.000000
   2.1 A'                  1000.000000     0.005329   -0.001154    0.000000
   3.1 A'                   228.000000     0.027077   -0.005725    0.000000
                             64.710000     0.101718   -0.023312    0.000000
                             21.060000     0.274740   -0.063955    0.000000
                              7.495000     0.448564   -0.149981    0.000000
                              2.797000     0.285074   -0.127262    0.000000
                              0.521500     0.015204    0.544529    0.000000
                              0.159600    -0.003191    0.580496    1.000000
   4.1 A'    1  2px           9.439000     0.038109
                              2.002000     0.209480
                              0.545600     0.508557
                              0.151700     0.468842
   5.1 A'    1  2pz           9.439000     0.038109
                              2.002000     0.209480
                              0.545600     0.508557
                              0.151700     0.468842
   6.1 A'    1  2px           9.439000     0.000000
                              2.002000     0.000000
                              0.545600     0.000000
                              0.151700     1.000000
   7.1 A'    1  2pz           9.439000     0.000000
                              2.002000     0.000000
                              0.545600     0.000000
                              0.151700     1.000000
   8.1 A'    1  3d0           0.550000     1.000000
   9.1 A'    1  3d1+          0.550000     1.000000
  10.1 A'    1  3d2+          0.550000     1.000000
  11.1 A'    2  1s         9046.000000     0.000700   -0.000153    0.000000
  12.1 A'                  1357.000000     0.005389   -0.001208    0.000000
  13.1 A'                   309.300000     0.027406   -0.005992    0.000000
                             87.730000     0.103207   -0.024544    0.000000
                             28.560000     0.278723   -0.067459    0.000000
                             10.210000     0.448540   -0.158078    0.000000
                              3.838000     0.278238   -0.121831    0.000000
                              0.746600     0.015440    0.549003    0.000000
                              0.224800    -0.002864    0.578815    1.000000
  14.1 A'    2  2px          13.550000     0.039919
                              2.917000     0.217169
                              0.797300     0.510319
                              0.218500     0.462214
  15.1 A'    2  2pz          13.550000     0.039919
                              2.917000     0.217169
                              0.797300     0.510319
                              0.218500     0.462214
  16.1 A'    2  2px          13.550000     0.000000
                              2.917000     0.000000
                              0.797300     0.000000
                              0.218500     1.000000
  17.1 A'    2  2pz          13.550000     0.000000
                              2.917000     0.000000
                              0.797300     0.000000
                              0.218500     1.000000
  18.1 A'    2  3d0           0.817000     1.000000
  19.1 A'    2  3d1+          0.817000     1.000000
  20.1 A'    2  3d2+          0.817000     1.000000
  21.1 A'    3  1s        11720.000000     0.000710   -0.000160    0.000000
  22.1 A'                  1759.000000     0.005470   -0.001263    0.000000
  23.1 A'                   400.800000     0.027837   -0.006267    0.000000
                            113.700000     0.104800   -0.025716    0.000000
                             37.030000     0.283062   -0.070924    0.000000
                             13.270000     0.448719   -0.165411    0.000000
                              5.025000     0.270952   -0.116955    0.000000
                              1.013000     0.015458    0.557368    0.000000
                              0.302300    -0.002585    0.572759    1.000000
  24.1 A'    3  2px          17.700000     0.043018
                              3.854000     0.228913
                              1.046000     0.508728
                              0.275300     0.460531
  25.1 A'    3  2pz          17.700000     0.043018
                              3.854000     0.228913
                              1.046000     0.508728
                              0.275300     0.460531
  26.1 A'    3  2px          17.700000     0.000000
                              3.854000     0.000000
                              1.046000     0.000000
                              0.275300     1.000000
  27.1 A'    3  2pz          17.700000     0.000000
                              3.854000     0.000000
                              1.046000     0.000000
                              0.275300     1.000000
  28.1 A'    3  3d0           1.185000     1.000000
  29.1 A'    3  3d1+          1.185000     1.000000
  30.1 A'    3  3d2+          1.185000     1.000000
  31.1 A'    4  1s       145700.000000     0.000237   -0.000067    0.000021    0.000000
  32.1 A'                 21840.000000     0.001835   -0.000519    0.000163    0.000000
  33.1 A'                  4972.000000     0.009529   -0.002748    0.000855    0.000000
  34.1 A'                  1408.000000     0.038628   -0.011101    0.003497    0.000000
                            459.700000     0.124081   -0.038482    0.012016    0.000000
                            165.900000     0.296471   -0.099760    0.032137    0.000000
                             64.690000     0.422068   -0.203088    0.065528    0.000000
                             26.440000     0.241711   -0.135608    0.049937    0.000000
                              7.628000     0.020051    0.507195   -0.229769    0.000000
                              2.996000    -0.003610    0.612898   -0.421006    0.000000
                              0.650400     0.000976    0.044297    0.642331    0.000000
                              0.233700    -0.000411   -0.008993    0.567540    1.000000
  35.1 A'    4  2px         453.700000     0.005706
                            106.800000     0.043046
                             33.730000     0.176591
                             12.130000     0.406863
                              4.594000     0.452549
                              1.678000     0.122801
                              0.590900    -0.004460
                              0.185200     0.002052
  36.1 A'    4  2pz         453.700000     0.005706
                            106.800000     0.043046
                             33.730000     0.176591
                             12.130000     0.406863
                              4.594000     0.452549
                              1.678000     0.122801
                              0.590900    -0.004460
                              0.185200     0.002052
  37.1 A'    4  2px         453.700000    -0.001607
                            106.800000    -0.012171
                             33.730000    -0.052079
                             12.130000    -0.123737
                              4.594000    -0.151619
                              1.678000     0.142425
                              0.590900     0.584501
                              0.185200     0.437540
  38.1 A'    4  2pz         453.700000    -0.001607
                            106.800000    -0.012171
                             33.730000    -0.052079
                             12.130000    -0.123737
                              4.594000    -0.151619
                              1.678000     0.142425
                              0.590900     0.584501
                              0.185200     0.437540
  39.1 A'    4  2px         453.700000     0.000000
                            106.800000     0.000000
                             33.730000     0.000000
                             12.130000     0.000000
                              4.594000     0.000000
                              1.678000     0.000000
                              0.590900     0.000000
                              0.185200     1.000000
  40.1 A'    4  2pz         453.700000     0.000000
                            106.800000     0.000000
                             33.730000     0.000000
                             12.130000     0.000000
                              4.594000     0.000000
                              1.678000     0.000000
                              0.590900     0.000000
                              0.185200     1.000000
  41.1 A'    4  3d0           0.738000     1.000000
  42.1 A'    4  3d1+          0.738000     1.000000
  43.1 A'    4  3d2+          0.738000     1.000000
   1.2 A"    1  2py           9.439000     0.038109    0.000000
   2.2 A"                     2.002000     0.209480    0.000000
                              0.545600     0.508557    0.000000
                              0.151700     0.468842    1.000000
   3.2 A"    1  3d2-          0.550000     1.000000
   4.2 A"    1  3d1-          0.550000     1.000000
   5.2 A"    2  2py          13.550000     0.039919    0.000000
   6.2 A"                     2.917000     0.217169    0.000000
                              0.797300     0.510319    0.000000
                              0.218500     0.462214    1.000000
   7.2 A"    2  3d2-          0.817000     1.000000
   8.2 A"    2  3d1-          0.817000     1.000000
   9.2 A"    3  2py          17.700000     0.043018    0.000000
  10.2 A"                     3.854000     0.228913    0.000000
                              1.046000     0.508728    0.000000
                              0.275300     0.460531    1.000000
  11.2 A"    3  3d2-          1.185000     1.000000
  12.2 A"    3  3d1-          1.185000     1.000000
  13.2 A"    4  2py         453.700000     0.005706   -0.001607    0.000000
  14.2 A"                   106.800000     0.043046   -0.012171    0.000000
  15.2 A"                    33.730000     0.176591   -0.052079    0.000000
                             12.130000     0.406863   -0.123737    0.000000
                              4.594000     0.452549   -0.151619    0.000000
                              1.678000     0.122801    0.142425    0.000000
                              0.590900    -0.004460    0.584501    0.000000
                              0.185200     0.002052    0.437540    1.000000
  16.2 A"    4  3d2-          0.738000     1.000000
  17.2 A"    4  3d1-          0.738000     1.000000

 NUCLEAR CHARGE:                   39
 NUMBER OF PRIMITIVE AOS:         123
 NUMBER OF SYMMETRY AOS:          119
 NUMBER OF CONTRACTIONS:           60   (  43A'  +  17A"  )
 NUMBER OF CORE ORBITALS:           8   (   7A'  +   1A"  )
 NUMBER OF VALENCE ORBITALS:       16   (  12A'  +   4A"  )


 NUCLEAR REPULSION ENERGY  132.38183712


 Eigenvalues of metric

         1 0.546E-02 0.121E-01 0.206E-01 0.286E-01 0.493E-01 0.755E-01 0.784E-01 0.101E+00
         2 0.984E-01 0.133E+00 0.179E+00 0.192E+00 0.266E+00 0.586E+00 0.800E+00 0.946E+00


 Contracted 2-electron integrals neglected if value below      1.0D-11
 AO integral compression algorithm  1   Integral accuracy      1.0D-11

     4.719 MB (compressed) written to integral file ( 50.0%)

     Node minimum: 4.719 MB, node maximum: 4.719 MB


 NUMBER OF SORTED TWO-ELECTRON INTEGRALS:     893926.     BUFFER LENGTH:  32768
 NUMBER OF SEGMENTS:   1  SEGMENT LENGTH:     893926      RECORD LENGTH: 524288

 Memory used in sort:       1.45 MW

 SORT1 READ     1117280. AND WROTE      861947. INTEGRALS IN      3 RECORDS. CPU TIME:     0.01 SEC, REAL TIME:     0.02 SEC
 SORT2 READ      861947. AND WROTE      893926. INTEGRALS IN     18 RECORDS. CPU TIME:     0.02 SEC, REAL TIME:     0.03 SEC

 FILE SIZES:   FILE 1:     6.3 MBYTE,  FILE 4:    12.6 MBYTE,   TOTAL:     18.9 MBYTE

 OPERATOR DM      FOR CENTER  0  COORDINATES:    0.000000    0.000000    0.000000


 **********************************************************************************************************************************
 DATASETS  * FILE   NREC   LENGTH (MB)   RECORD NAMES
              1      19        6.31       500      610      700      900      950      970     1000      129      960     1100   
                                          VAR    BASINP    GEOM    SYMINP    ZMAT    AOBASIS   BASIS     P2S    ABASIS      S 
                                         1400     1410     1200     1210     1080     1600     1650     1300     1700   
                                           T        V       H0       H01     AOSYM     SMH    MOLCAS    ERIS     OPER   

 PROGRAMS   *        TOTAL       INT
 CPU TIMES  *         0.26      0.22
 REAL TIME  *         0.29 SEC
 DISK USED  *        24.22 MB      
 GA USED    *         0.00 MB       (max)       0.00 MB       (current)
 **********************************************************************************************************************************

1PROGRAM * RHF-SCF (CLOSED SHELL)       Authors: W. Meyer, H.-J. Werner


 NUMBER OF ELECTRONS:      20+   20-
 CONVERGENCE THRESHOLDS:    1.00E-05 (Density)    1.00E-07 (Energy)
 MAX. NUMBER OF ITERATIONS:       60
 INTERPOLATION TYPE:            DIIS
 INTERPOLATION STEPS:              2 (START)      1 (STEP)
 LEVEL SHIFTS:                  0.00 (CLOSED)  0.00 (OPEN) 



 Orbital guess generated from atomic densities. Full valence occupancy:   19   5

 Molecular orbital dump at record        2100.2

 Initial alpha occupancy:  16   4
 Initial beta  occupancy:  16   4
 Wave function symmetry:    1

 ITERATION    DDIFF          GRAD             ENERGY        2-EL.EN.            DIPOLE MOMENTS         DIIS
    1      0.000D+00      0.000D+00      -693.75765583    810.282369    0.29856    0.00000   -3.52777    0
    2      0.000D+00      0.175D-01      -693.79828609    806.684832    0.03294    0.00000   -2.29453    1
    3      0.346D-01      0.117D-01      -693.82965399    806.900719    0.24138    0.00000   -2.79597    2
    4      0.142D-01      0.200D-02      -693.83070107    807.381605    0.18522    0.00000   -2.66009    3
    5      0.319D-02      0.883D-03      -693.83089693    807.229267    0.19986    0.00000   -2.67349    4
    6      0.144D-02      0.171D-03      -693.83091118    807.226126    0.19748    0.00000   -2.66460    5
    7      0.298D-03      0.674D-04      -693.83091381    807.225900    0.19767    0.00000   -2.66403    6
    8      0.153D-03      0.196D-04      -693.83091424    807.226871    0.19750    0.00000   -2.66381    7
    9      0.514D-04      0.769D-05      -693.83091433    807.226241    0.19756    0.00000   -2.66379    7
   10      0.248D-04      0.323D-05      -693.83091435    807.226567    0.19754    0.00000   -2.66373    7
   11      0.122D-04      0.129D-05      -693.83091435    807.226455    0.19755    0.00000   -2.66373    8
   12      0.601D-05      0.193D-06      -693.83091435    807.226507    0.19755    0.00000   -2.66373    0

 Final occupancy:  16   4

 !RHF STATE 1.1 Energy               -693.830914354313
 Nuclear energy                       132.38183712
 One-electron energy                -1229.82600488
 Two-electron energy                  403.61325341
 Virial quotient                       -0.99861710
 !RHF STATE 1.1 Dipole moment           0.19754658     0.00000000    -2.66372601
 Dipole moment /Debye                   0.50208043     0.00000000    -6.77007276

 ELECTRON ORBITALS
 =================


   Orb  Occ    Energy  Couls-En    Coefficients

                                   1 1s      1 1s      1 1s      1 2px     1 2pz     1 2px     1 2pz     1 3d0     1 3d1+    1 3d2+ 
                                   2 1s      2 1s      2 1s      2 2px     2 2pz     2 2px     2 2pz     2 3d0     2 3d1+    2 3d2+ 
                                   3 1s      3 1s      3 1s      3 2px     3 2pz     3 2px     3 2pz     3 3d0     3 3d1+    3 3d2+ 
                                   4 1s      4 1s      4 1s      4 1s      4 2px     4 2pz     4 2px     4 2pz     4 2px     4 2pz  
                                   4 3d0     4 3d1+    4 3d2+ 

   1.1   2  -118.3866 -284.7278  0.000006  0.000023  0.000048  0.000029 -0.000012  0.000043 -0.000172  0.000009 -0.000019  0.000011
                                -0.000016 -0.000058  0.000164 -0.000005  0.000005  0.000025 -0.000019 -0.000006 -0.000001  0.000001
                                 0.000005  0.000022 -0.000103  0.000002  0.000002 -0.000012 -0.000137 -0.000002  0.000007  0.000002
                                 1.000008  0.000059  0.000120 -0.000199 -0.000006 -0.000012  0.000012  0.000038 -0.000043 -0.000118
                                -0.000020 -0.000016 -0.000004

   2.1   2   -20.3043  -61.7401  0.000152  0.000016  0.000032  0.000003 -0.000005  0.001409 -0.003192 -0.000936  0.000832 -0.000188
                                 0.000007  0.000051  0.002942  0.000241 -0.000564  0.000159 -0.000374  0.000116 -0.000084  0.000015
                                 1.001011  0.004862 -0.006277 -0.001140  0.002696  0.001099 -0.002515  0.000233 -0.000145  0.000037
                                 0.000001  0.000011  0.000037 -0.000111  0.000002  0.000006  0.000009  0.000043  0.000003 -0.000006
                                 0.000088  0.000034 -0.000007

   3.1   2   -15.2771  -46.5145 -0.000056 -0.000935  0.003320  0.000138 -0.000464 -0.001731  0.003945 -0.000959  0.000888 -0.000219
                                 1.001061  0.004793 -0.007967  0.001465 -0.003449 -0.001691  0.003894  0.000447 -0.000368  0.000086
                                -0.000027 -0.000107  0.002299 -0.000241  0.000384  0.000193  0.000258  0.000073 -0.000067 -0.000002
                                -0.000025 -0.000171 -0.000372  0.000662  0.000000 -0.000010 -0.000012 -0.000063  0.000028  0.000318
                                 0.000036 -0.000020 -0.000013

   4.1   2   -12.1031  -55.4626  0.000088  0.000359  0.000989  0.000538 -0.000207  0.000714 -0.003244  0.000195 -0.000334  0.000196
                                -0.000274 -0.001025  0.002967 -0.000105  0.000093  0.000493 -0.000320 -0.000109 -0.000013  0.000010
                                 0.000165  0.000580 -0.002293  0.000026  0.000027 -0.000054 -0.002249 -0.000128  0.000043  0.000000
                                 0.000141  1.000991  0.002307 -0.003478 -0.000282 -0.000619  0.000122  0.000495 -0.000657 -0.001925
                                -0.000235 -0.000190 -0.000052

   5.1   2   -11.0861  -39.1129  1.001065  0.007164  0.000030  0.000902 -0.002403  0.000087  0.000356  0.002271 -0.002004  0.000465
                                -0.000963 -0.001376 -0.000079 -0.000222  0.000607 -0.000351  0.000645 -0.000094  0.000052 -0.000010
                                -0.000322  0.000523 -0.004532  0.000126 -0.000109  0.000942 -0.002791 -0.000143  0.000153 -0.000025
                                 0.000013  0.000088  0.000166 -0.000534  0.000010 -0.000028  0.000058 -0.000140 -0.000422 -0.000019
                                 0.000081 -0.000135 -0.000073

   6.1   2    -9.3519  -51.9966  0.000055  0.000164 -0.000431 -0.000040  0.000027  0.000088  0.000790 -0.000168 -0.000005 -0.000012
                                 0.000055  0.000205 -0.000542  0.000077 -0.000009 -0.000202 -0.000009  0.000015 -0.000015  0.000009
                                -0.000162 -0.000504  0.000891  0.000028  0.000077 -0.000382 -0.000190  0.000192  0.000159  0.000067
                                 0.000008  0.000692 -0.000288  0.000217  0.395180  0.918583  0.000012 -0.000043 -0.000023  0.000139
                                 0.000017  0.000004  0.000007

   7.1   2    -9.3502  -51.9671 -0.000050 -0.000172  0.000510  0.000030  0.000065 -0.000167 -0.000174  0.000085 -0.000019  0.000027
                                 0.000014  0.000049 -0.000221 -0.000037  0.000012  0.000051  0.000136 -0.000022  0.000012 -0.000006
                                 0.000020  0.000078 -0.000287  0.000023 -0.000045 -0.000056  0.000084  0.000009  0.000021 -0.000003
                                 0.000002  0.000018  0.000040 -0.000044  0.918619 -0.395185  0.000376 -0.000136 -0.000168  0.000036
                                -0.000034  0.000052  0.000024

   8.1   2    -1.2236  -17.9555 -0.015622  0.362015 -0.133555  0.090827 -0.221120 -0.036513  0.099200  0.031852 -0.025223  0.005567
                                -0.005488  0.029535 -0.002526  0.006093 -0.014392 -0.001449 -0.001694  0.002599 -0.001590  0.000214
                                -0.016247  0.745870 -0.058003 -0.092431  0.102092  0.021297 -0.048225  0.012961 -0.006276  0.003510
                                 0.000107 -0.001035  0.336623 -0.018559 -0.001005 -0.002607  0.027046  0.067710 -0.009905 -0.022978
                                 0.007466  0.005073  0.001027

   9.1   2    -1.0703  -18.7234  0.007113 -0.235887  0.087888 -0.056504  0.106770  0.021606 -0.046497 -0.015133  0.016140 -0.004204
                                 0.003978 -0.048175  0.002948 -0.009642  0.018838  0.001655 -0.001564 -0.001781  0.002103 -0.000534
                                 0.005640 -0.260830  0.012988  0.014997 -0.157509 -0.004084  0.046188 -0.004774  0.007396 -0.000573
                                -0.000785 -0.005261  0.908067  0.018489  0.000630  0.001693  0.005676  0.007058 -0.004147 -0.008561
                                -0.001023 -0.000581  0.000030

  10.1   2    -0.8927  -14.3412  0.012165 -0.456733  0.136621  0.160580 -0.358609 -0.053326  0.127819 -0.016125  0.013779 -0.003040
                                 0.017539 -0.709955  0.109281 -0.094465  0.212010  0.030280 -0.071178 -0.014747  0.012596 -0.002773
                                -0.000112  0.184012 -0.007674 -0.001004 -0.010012  0.003968 -0.017203  0.000650  0.000338  0.000173
                                 0.000254  0.001215 -0.079760 -0.012580 -0.000429 -0.001168  0.016038  0.028546 -0.005148 -0.005463
                                 0.002633  0.002106  0.000394

  11.1   2    -0.5774  -16.6961  0.000996  0.334868 -0.114057  0.192931 -0.272494 -0.079098  0.105538  0.011507 -0.020229  0.007079
                                -0.000156 -0.156391  0.009313  0.010976  0.008394  0.009602 -0.012437 -0.002310 -0.002079  0.001087
                                 0.001290 -0.218111 -0.101500 -0.052482  0.589731  0.015132 -0.056799  0.010337 -0.014551  0.000085
                                -0.001170 -0.005576  0.156776  0.063043  0.003111  0.005468 -0.275162 -0.465162  0.017496  0.030253
                                -0.015156 -0.018483 -0.005029

  12.1   2    -0.4375  -15.7384  0.000317 -0.118342  0.058358  0.196903  0.178769 -0.009283 -0.092794 -0.015967 -0.015798  0.007392
                                -0.002541  0.056287  0.037306  0.079883  0.058870 -0.006411 -0.003180 -0.008895 -0.006822  0.004026
                                 0.001492  0.173261  0.025503  0.517425 -0.008152  0.009376 -0.013342  0.006263  0.009680 -0.010516
                                -0.000778 -0.005151  0.001063  0.026485 -0.002102  0.002389  0.460836 -0.476702  0.011465 -0.000066
                                -0.009341  0.008315  0.004364

  13.1   2    -0.3600  -15.7628  0.000833  0.209934 -0.101211 -0.181253 -0.181705  0.003405  0.076577  0.011617  0.010858 -0.005843
                                 0.002121 -0.111214 -0.034313 -0.070858 -0.122213  0.009335 -0.004514  0.011427  0.004387 -0.003551
                                -0.000218 -0.177822 -0.050929 -0.441512  0.077136 -0.024706  0.020727  0.001024 -0.015306  0.007018
                                 0.000610  0.004446  0.018616 -0.015637 -0.000407  0.000038  0.771011 -0.136604  0.022483 -0.008418
                                 0.002787 -0.008000 -0.003109

  14.1   2    -0.2914  -11.8437 -0.004978 -0.375123  0.189799  0.003616 -0.357802 -0.078552  0.212322  0.014803 -0.006595  0.000696
                                -0.003964  0.461547  0.071358 -0.339918  0.528715 -0.017580  0.041847 -0.017728  0.024008 -0.006870
                                -0.004442  0.066166  0.060237 -0.161883  0.015382 -0.001348 -0.028758 -0.005000 -0.005687  0.002656
                                -0.000405 -0.003618 -0.034302 -0.001378 -0.000015 -0.001047 -0.005582 -0.212249 -0.007383 -0.015481
                                 0.008059  0.001504 -0.000484

  15.1   2    -0.2366  -14.8896  0.000247  0.060751 -0.011784  0.441574 -0.081138 -0.115492  0.205763  0.008675  0.000285 -0.001919
                                 0.003834  0.099619 -0.060727  0.208633  0.308792 -0.003952  0.028689 -0.019819 -0.008500  0.006453
                                 0.000841 -0.250754 -0.120646  0.029401  0.372009  0.004124  0.076050  0.020012  0.004220 -0.002411
                                 0.000603  0.008303  0.155465  0.044510  0.001986  0.003229  0.302499  0.624384  0.038174  0.097164
                                -0.027617 -0.025713 -0.006429

  16.1   2    -0.1051  -13.2964  0.000339  0.048858  0.033487 -0.149550 -0.144585 -0.049512  0.026603 -0.042325 -0.049293  0.027453
                                 0.000546 -0.005219 -0.023049 -0.549581 -0.199738 -0.075500 -0.021446  0.012238  0.016782 -0.008368
                                 0.005006 -0.098662 -0.134184  0.445249  0.306521  0.112537  0.072715  0.007777  0.001762 -0.003568
                                 0.000073  0.004305  0.120853  0.056392  0.000834  0.004007  0.099265  0.361320  0.042183  0.096319
                                -0.038502 -0.021480 -0.001902

                                   1 2py     1 2py     1 3d2-    1 3d1-    2 2py     2 2py     2 3d2-    2 3d1-    3 2py     3 2py  
                                   3 3d2-    3 3d1-    4 2py     4 2py     4 2py     4 3d2-    4 3d1- 

   1.2   2    -9.3501  -51.9662  0.000074 -0.000121  0.000038 -0.000022 -0.000011  0.000060  0.000003 -0.000016  0.000030 -0.000171
                                 0.000006  0.000000  1.000019  0.000408 -0.000199  0.000025  0.000057

   2.2   2    -0.4249  -15.8660  0.234882 -0.038051  0.007598 -0.020852  0.092931 -0.008236  0.004443 -0.010172  0.447930  0.005065
                                -0.009317  0.007679 -0.002963  0.758573  0.012808  0.004831  0.011437

   3.2   2    -0.3432  -15.1831 -0.399032  0.051576 -0.008282  0.020880 -0.209332  0.008541 -0.007902  0.017951 -0.551981 -0.028197
                                 0.009492 -0.019188  0.000166  0.616627  0.022560 -0.004558 -0.011364

   4.2   2    -0.1277  -12.4286  0.313835  0.022191 -0.028122  0.062200  0.642004  0.074611  0.011156 -0.025788 -0.462512 -0.103269
                                 0.002796  0.000001  0.001651  0.124181  0.004348 -0.007402 -0.014884


 **********************************************************************************************************************************
 DATASETS  * FILE   NREC   LENGTH (MB)   RECORD NAMES
              1      19        6.31       500      610      700      900      950      970     1000      129      960     1100   
                                          VAR    BASINP    GEOM    SYMINP    ZMAT    AOBASIS   BASIS     P2S    ABASIS      S 
                                         1400     1410     1200     1210     1080     1600     1650     1300     1700   
                                           T        V       H0       H01     AOSYM     SMH    MOLCAS    ERIS     OPER   

              2       3        0.37       700     1000     2100   
                                         GEOM     BASIS     RHF  

 PROGRAMS   *        TOTAL        HF       INT
 CPU TIMES  *         0.33      0.07      0.22
 REAL TIME  *         0.37 SEC
 DISK USED  *        24.22 MB      
 GA USED    *         0.00 MB       (max)       0.00 MB       (current)
 **********************************************************************************************************************************
 SETTING BASIS          =    AUG-CC-PVTZ
 SETTING CHARGE         =         0.00000000                                  

 *** calculation for complex


 Recomputing integrals since basis changed


 Using spherical harmonics

 Library entry C      S aug-cc-pVTZ          selected for orbital group  1
 Library entry C      P aug-cc-pVTZ          selected for orbital group  1
 Library entry C      D aug-cc-pVTZ          selected for orbital group  1
 Library entry C      F aug-cc-pVTZ          selected for orbital group  1
 Library entry N      S aug-cc-pVTZ          selected for orbital group  2
 Library entry N      P aug-cc-pVTZ          selected for orbital group  2
 Library entry N      D aug-cc-pVTZ          selected for orbital group  2
 Library entry N      F aug-cc-pVTZ          selected for orbital group  2
 Library entry O      S aug-cc-pVTZ          selected for orbital group  3
 Library entry O      P aug-cc-pVTZ          selected for orbital group  3
 Library entry O      D aug-cc-pVTZ          selected for orbital group  3
 Library entry O      F aug-cc-pVTZ          selected for orbital group  3
 Library entry AR     S aug-cc-pVTZ          selected for orbital group  4
 Library entry AR     P aug-cc-pVTZ          selected for orbital group  4
 Library entry AR     D aug-cc-pVTZ          selected for orbital group  4
 Library entry AR     F aug-cc-pVTZ          selected for orbital group  4

1PROGRAM * SEWARD (Integral evaluation for generally contracted gaussian basis sets)     Author: Roland Lindh, 1990

 Geometry written to block  1 of record 700

 Orientation using atomic masses  
 Molecule type: Asymmetric top
 Symmetry elements: Y
 Rotational constants:       2.7496069      2.6240581     57.4686891 GHz  (calculated with average atomic masses)

 Point group  Cs  



 ATOMIC COORDINATES

 NR  ATOM    CHARGE       X              Y              Z

   1  C       6.00    0.239877581    0.000000000    2.536036967
   2  N       7.00   -0.700087432    0.000000000    4.665974647
   3  O       8.00    1.136707650    0.000000000    0.503842011
   4  AR     18.00   -0.281913872    0.000000000   -2.600290802

 Bond lengths in Bohr (Angstrom)

 1-2  2.328125586  1-3  2.221288030  3-4  3.412935327
     (1.231991000)     (1.175455000)     (1.806047591)

 Bond angles

  1-3-4  131.62670082   2-1-3  180.00000000


 BASIS DATA

   Nr Sym  Nuc  Type         Exponents   Contraction coefficients

   1.1 A'    1  1s         8236.000000     0.000531   -0.000113    0.000000    0.000000
   2.1 A'                  1235.000000     0.004108   -0.000878    0.000000    0.000000
   3.1 A'                   280.800000     0.021087   -0.004540    0.000000    0.000000
   4.1 A'                    79.270000     0.081853   -0.018133    0.000000    0.000000
                             25.590000     0.234817   -0.055760    0.000000    0.000000
                              8.997000     0.434401   -0.126895    0.000000    0.000000
                              3.319000     0.346129   -0.170352    0.000000    0.000000
                              0.905900     0.039378    0.140382    1.000000    0.000000
                              0.364300    -0.008983    0.598684    0.000000    0.000000
                              0.128500     0.002385    0.395389    0.000000    1.000000
   5.1 A'    1  1s            0.044020     1.000000
   6.1 A'    1  2px          18.710000     0.014031
                              4.133000     0.086866
                              1.200000     0.290216
                              0.382700     0.501008
                              0.120900     0.343406
   7.1 A'    1  2pz          18.710000     0.014031
                              4.133000     0.086866
                              1.200000     0.290216
                              0.382700     0.501008
                              0.120900     0.343406
   8.1 A'    1  2px          18.710000     0.000000
                              4.133000     0.000000
                              1.200000     0.000000
                              0.382700     1.000000
                              0.120900     0.000000
   9.1 A'    1  2pz          18.710000     0.000000
                              4.133000     0.000000
                              1.200000     0.000000
                              0.382700     1.000000
                              0.120900     0.000000
  10.1 A'    1  2px          18.710000     0.000000
                              4.133000     0.000000
                              1.200000     0.000000
                              0.382700     0.000000
                              0.120900     1.000000
  11.1 A'    1  2pz          18.710000     0.000000
                              4.133000     0.000000
                              1.200000     0.000000
                              0.382700     0.000000
                              0.120900     1.000000
  12.1 A'    1  2px           0.035690     1.000000
  13.1 A'    1  2pz           0.035690     1.000000
  14.1 A'    1  3d0           1.097000     1.000000
  15.1 A'    1  3d1+          1.097000     1.000000
  16.1 A'    1  3d2+          1.097000     1.000000
  17.1 A'    1  3d0           0.318000     1.000000
  18.1 A'    1  3d1+          0.318000     1.000000
  19.1 A'    1  3d2+          0.318000     1.000000
  20.1 A'    1  3d0           0.100000     1.000000
  21.1 A'    1  3d1+          0.100000     1.000000
  22.1 A'    1  3d2+          0.100000     1.000000
  23.1 A'    1  4f1+          0.761000     1.000000
  24.1 A'    1  4f0           0.761000     1.000000
  25.1 A'    1  4f3+          0.761000     1.000000
  26.1 A'    1  4f2+          0.761000     1.000000
  27.1 A'    1  4f1+          0.268000     1.000000
  28.1 A'    1  4f0           0.268000     1.000000
  29.1 A'    1  4f3+          0.268000     1.000000
  30.1 A'    1  4f2+          0.268000     1.000000
  31.1 A'    2  1s        11420.000000     0.000523   -0.000115    0.000000    0.000000
  32.1 A'                  1712.000000     0.004045   -0.000895    0.000000    0.000000
  33.1 A'                   389.300000     0.020775   -0.004624    0.000000    0.000000
  34.1 A'                   110.000000     0.080727   -0.018528    0.000000    0.000000
                             35.570000     0.233074   -0.057339    0.000000    0.000000
                             12.540000     0.433501   -0.132076    0.000000    0.000000
                              4.644000     0.347472   -0.172510    0.000000    0.000000
                              1.293000     0.041262    0.151814    1.000000    0.000000
                              0.511800    -0.008508    0.599944    0.000000    0.000000
                              0.178700     0.002384    0.387462    0.000000    1.000000
  35.1 A'    2  1s            0.057600     1.000000
  36.1 A'    2  2px          26.630000     0.014670
                              5.948000     0.091764
                              1.742000     0.298683
                              0.555000     0.498487
                              0.172500     0.337023
  37.1 A'    2  2pz          26.630000     0.014670
                              5.948000     0.091764
                              1.742000     0.298683
                              0.555000     0.498487
                              0.172500     0.337023
  38.1 A'    2  2px          26.630000     0.000000
                              5.948000     0.000000
                              1.742000     0.000000
                              0.555000     1.000000
                              0.172500     0.000000
  39.1 A'    2  2pz          26.630000     0.000000
                              5.948000     0.000000
                              1.742000     0.000000
                              0.555000     1.000000
                              0.172500     0.000000
  40.1 A'    2  2px          26.630000     0.000000
                              5.948000     0.000000
                              1.742000     0.000000
                              0.555000     0.000000
                              0.172500     1.000000
  41.1 A'    2  2pz          26.630000     0.000000
                              5.948000     0.000000
                              1.742000     0.000000
                              0.555000     0.000000
                              0.172500     1.000000
  42.1 A'    2  2px           0.049100     1.000000
  43.1 A'    2  2pz           0.049100     1.000000
  44.1 A'    2  3d0           1.654000     1.000000
  45.1 A'    2  3d1+          1.654000     1.000000
  46.1 A'    2  3d2+          1.654000     1.000000
  47.1 A'    2  3d0           0.469000     1.000000
  48.1 A'    2  3d1+          0.469000     1.000000
  49.1 A'    2  3d2+          0.469000     1.000000
  50.1 A'    2  3d0           0.151000     1.000000
  51.1 A'    2  3d1+          0.151000     1.000000
  52.1 A'    2  3d2+          0.151000     1.000000
  53.1 A'    2  4f1+          1.093000     1.000000
  54.1 A'    2  4f0           1.093000     1.000000
  55.1 A'    2  4f3+          1.093000     1.000000
  56.1 A'    2  4f2+          1.093000     1.000000
  57.1 A'    2  4f1+          0.364000     1.000000
  58.1 A'    2  4f0           0.364000     1.000000
  59.1 A'    2  4f3+          0.364000     1.000000
  60.1 A'    2  4f2+          0.364000     1.000000
  61.1 A'    3  1s        15330.000000     0.000508   -0.000115    0.000000    0.000000
  62.1 A'                  2299.000000     0.003929   -0.000895    0.000000    0.000000
  63.1 A'                   522.400000     0.020243   -0.004636    0.000000    0.000000
  64.1 A'                   147.300000     0.079181   -0.018724    0.000000    0.000000
                             47.550000     0.230687   -0.058463    0.000000    0.000000
                             16.760000     0.433118   -0.136463    0.000000    0.000000
                              6.207000     0.350260   -0.175740    0.000000    0.000000
                              1.752000     0.042728    0.160934    1.000000    0.000000
                              0.688200    -0.008154    0.603418    0.000000    0.000000
                              0.238400     0.002381    0.378765    0.000000    1.000000
  65.1 A'    3  1s            0.073760     1.000000
  66.1 A'    3  2px          34.460000     0.015928
                              7.749000     0.099740
                              2.280000     0.310492
                              0.715600     0.491026
                              0.214000     0.336337
  67.1 A'    3  2pz          34.460000     0.015928
                              7.749000     0.099740
                              2.280000     0.310492
                              0.715600     0.491026
                              0.214000     0.336337
  68.1 A'    3  2px          34.460000     0.000000
                              7.749000     0.000000
                              2.280000     0.000000
                              0.715600     1.000000
                              0.214000     0.000000
  69.1 A'    3  2pz          34.460000     0.000000
                              7.749000     0.000000
                              2.280000     0.000000
                              0.715600     1.000000
                              0.214000     0.000000
  70.1 A'    3  2px          34.460000     0.000000
                              7.749000     0.000000
                              2.280000     0.000000
                              0.715600     0.000000
                              0.214000     1.000000
  71.1 A'    3  2pz          34.460000     0.000000
                              7.749000     0.000000
                              2.280000     0.000000
                              0.715600     0.000000
                              0.214000     1.000000
  72.1 A'    3  2px           0.059740     1.000000
  73.1 A'    3  2pz           0.059740     1.000000
  74.1 A'    3  3d0           2.314000     1.000000
  75.1 A'    3  3d1+          2.314000     1.000000
  76.1 A'    3  3d2+          2.314000     1.000000
  77.1 A'    3  3d0           0.645000     1.000000
  78.1 A'    3  3d1+          0.645000     1.000000
  79.1 A'    3  3d2+          0.645000     1.000000
  80.1 A'    3  3d0           0.214000     1.000000
  81.1 A'    3  3d1+          0.214000     1.000000
  82.1 A'    3  3d2+          0.214000     1.000000
  83.1 A'    3  4f1+          1.428000     1.000000
  84.1 A'    3  4f0           1.428000     1.000000
  85.1 A'    3  4f3+          1.428000     1.000000
  86.1 A'    3  4f2+          1.428000     1.000000
  87.1 A'    3  4f1+          0.500000     1.000000
  88.1 A'    3  4f0           0.500000     1.000000
  89.1 A'    3  4f3+          0.500000     1.000000
  90.1 A'    3  4f2+          0.500000     1.000000
  91.1 A'    4  1s       545000.000000     0.000046   -0.000013    0.000004    0.000000    0.000000
  92.1 A'                 81640.000000     0.000354   -0.000100    0.000031    0.000000    0.000000
  93.1 A'                 18580.000000     0.001858   -0.000530    0.000166    0.000000    0.000000
  94.1 A'                  5261.000000     0.007769   -0.002214    0.000692    0.000000    0.000000
  95.1 A'                  1717.000000     0.027423   -0.007968    0.002498    0.000000    0.000000
                            619.900000     0.082384   -0.024580    0.007711    0.000000    0.000000
                            241.600000     0.201230   -0.065780    0.020871    0.000000    0.000000
                             99.790000     0.356781   -0.137942    0.044396    0.000000    0.000000
                             43.150000     0.349563   -0.201630    0.068022    0.000000    0.000000
                             19.140000     0.118266   -0.041283    0.014135    0.000000    0.000000
                              7.488000     0.005602    0.484680   -0.207489    0.000000    0.000000
                              3.205000     0.000483    0.579224   -0.425045    0.000000    0.000000
                              1.196000    -0.000148    0.087908    0.070486    1.000000    0.000000
                              0.520400     0.000029   -0.007276    0.733627    0.000000    0.000000
                              0.195400    -0.000023    0.002329    0.396005    0.000000    1.000000
  96.1 A'    4  1s            0.068500     1.000000
  97.1 A'    4  2px         761.800000     0.002370
                            180.200000     0.019020
                             57.500000     0.088081
                             21.240000     0.256377
                              8.388000     0.438711
                              3.416000     0.347569
                              1.206000     0.056674
                              0.452300    -0.005239
                              0.154500     0.001644
  98.1 A'    4  2pz         761.800000     0.002370
                            180.200000     0.019020
                             57.500000     0.088081
                             21.240000     0.256377
                              8.388000     0.438711
                              3.416000     0.347569
                              1.206000     0.056674
                              0.452300    -0.005239
                              0.154500     0.001644
  99.1 A'    4  2px         761.800000    -0.000667
                            180.200000    -0.005327
                             57.500000    -0.025549
                             21.240000    -0.075720
                              8.388000    -0.141133
                              3.416000    -0.093277
                              1.206000     0.282872
                              0.452300     0.562450
                              0.154500     0.325059
 100.1 A'    4  2pz         761.800000    -0.000667
                            180.200000    -0.005327
                             57.500000    -0.025549
                             21.240000    -0.075720
                              8.388000    -0.141133
                              3.416000    -0.093277
                              1.206000     0.282872
                              0.452300     0.562450
                              0.154500     0.325059
 101.1 A'    4  2px         761.800000     0.000000
                            180.200000     0.000000
                             57.500000     0.000000
                             21.240000     0.000000
                              8.388000     0.000000
                              3.416000     0.000000
                              1.206000     1.000000
                              0.452300     0.000000
                              0.154500     0.000000
 102.1 A'    4  2pz         761.800000     0.000000
                            180.200000     0.000000
                             57.500000     0.000000
                             21.240000     0.000000
                              8.388000     0.000000
                              3.416000     0.000000
                              1.206000     1.000000
                              0.452300     0.000000
                              0.154500     0.000000
 103.1 A'    4  2px         761.800000     0.000000
                            180.200000     0.000000
                             57.500000     0.000000
                             21.240000     0.000000
                              8.388000     0.000000
                              3.416000     0.000000
                              1.206000     0.000000
                              0.452300     0.000000
                              0.154500     1.000000
 104.1 A'    4  2pz         761.800000     0.000000
                            180.200000     0.000000
                             57.500000     0.000000
                             21.240000     0.000000
                              8.388000     0.000000
                              3.416000     0.000000
                              1.206000     0.000000
                              0.452300     0.000000
                              0.154500     1.000000
 105.1 A'    4  2px           0.048700     1.000000
 106.1 A'    4  2pz           0.048700     1.000000
 107.1 A'    4  3d0           0.410000     1.000000
 108.1 A'    4  3d1+          0.410000     1.000000
 109.1 A'    4  3d2+          0.410000     1.000000
 110.1 A'    4  3d0           1.254000     1.000000
 111.1 A'    4  3d1+          1.254000     1.000000
 112.1 A'    4  3d2+          1.254000     1.000000
 113.1 A'    4  3d0           0.169000     1.000000
 114.1 A'    4  3d1+          0.169000     1.000000
 115.1 A'    4  3d2+          0.169000     1.000000
 116.1 A'    4  4f1+          0.890000     1.000000
 117.1 A'    4  4f0           0.890000     1.000000
 118.1 A'    4  4f3+          0.890000     1.000000
 119.1 A'    4  4f2+          0.890000     1.000000
 120.1 A'    4  4f1+          0.406000     1.000000
 121.1 A'    4  4f0           0.406000     1.000000
 122.1 A'    4  4f3+          0.406000     1.000000
 123.1 A'    4  4f2+          0.406000     1.000000
   1.2 A"    1  2py          18.710000     0.014031    0.000000    0.000000
   2.2 A"                     4.133000     0.086866    0.000000    0.000000
   3.2 A"                     1.200000     0.290216    0.000000    0.000000
                              0.382700     0.501008    1.000000    0.000000
                              0.120900     0.343406    0.000000    1.000000
   4.2 A"    1  2py           0.035690     1.000000
   5.2 A"    1  3d2-          1.097000     1.000000
   6.2 A"    1  3d1-          1.097000     1.000000
   7.2 A"    1  3d2-          0.318000     1.000000
   8.2 A"    1  3d1-          0.318000     1.000000
   9.2 A"    1  3d2-          0.100000     1.000000
  10.2 A"    1  3d1-          0.100000     1.000000
  11.2 A"    1  4f1-          0.761000     1.000000
  12.2 A"    1  4f2-          0.761000     1.000000
  13.2 A"    1  4f3-          0.761000     1.000000
  14.2 A"    1  4f1-          0.268000     1.000000
  15.2 A"    1  4f2-          0.268000     1.000000
  16.2 A"    1  4f3-          0.268000     1.000000
  17.2 A"    2  2py          26.630000     0.014670    0.000000    0.000000
  18.2 A"                     5.948000     0.091764    0.000000    0.000000
  19.2 A"                     1.742000     0.298683    0.000000    0.000000
                              0.555000     0.498487    1.000000    0.000000
                              0.172500     0.337023    0.000000    1.000000
  20.2 A"    2  2py           0.049100     1.000000
  21.2 A"    2  3d2-          1.654000     1.000000
  22.2 A"    2  3d1-          1.654000     1.000000
  23.2 A"    2  3d2-          0.469000     1.000000
  24.2 A"    2  3d1-          0.469000     1.000000
  25.2 A"    2  3d2-          0.151000     1.000000
  26.2 A"    2  3d1-          0.151000     1.000000
  27.2 A"    2  4f1-          1.093000     1.000000
  28.2 A"    2  4f2-          1.093000     1.000000
  29.2 A"    2  4f3-          1.093000     1.000000
  30.2 A"    2  4f1-          0.364000     1.000000
  31.2 A"    2  4f2-          0.364000     1.000000
  32.2 A"    2  4f3-          0.364000     1.000000
  33.2 A"    3  2py          34.460000     0.015928    0.000000    0.000000
  34.2 A"                     7.749000     0.099740    0.000000    0.000000
  35.2 A"                     2.280000     0.310492    0.000000    0.000000
                              0.715600     0.491026    1.000000    0.000000
                              0.214000     0.336337    0.000000    1.000000
  36.2 A"    3  2py           0.059740     1.000000
  37.2 A"    3  3d2-          2.314000     1.000000
  38.2 A"    3  3d1-          2.314000     1.000000
  39.2 A"    3  3d2-          0.645000     1.000000
  40.2 A"    3  3d1-          0.645000     1.000000
  41.2 A"    3  3d2-          0.214000     1.000000
  42.2 A"    3  3d1-          0.214000     1.000000
  43.2 A"    3  4f1-          1.428000     1.000000
  44.2 A"    3  4f2-          1.428000     1.000000
  45.2 A"    3  4f3-          1.428000     1.000000
  46.2 A"    3  4f1-          0.500000     1.000000
  47.2 A"    3  4f2-          0.500000     1.000000
  48.2 A"    3  4f3-          0.500000     1.000000
  49.2 A"    4  2py         761.800000     0.002370   -0.000667    0.000000    0.000000
  50.2 A"                   180.200000     0.019020   -0.005327    0.000000    0.000000
  51.2 A"                    57.500000     0.088081   -0.025549    0.000000    0.000000
  52.2 A"                    21.240000     0.256377   -0.075720    0.000000    0.000000
                              8.388000     0.438711   -0.141133    0.000000    0.000000
                              3.416000     0.347569   -0.093277    0.000000    0.000000
                              1.206000     0.056674    0.282872    1.000000    0.000000
                              0.452300    -0.005239    0.562450    0.000000    0.000000
                              0.154500     0.001644    0.325059    0.000000    1.000000
  53.2 A"    4  2py           0.048700     1.000000
  54.2 A"    4  3d2-          0.410000     1.000000
  55.2 A"    4  3d1-          0.410000     1.000000
  56.2 A"    4  3d2-          1.254000     1.000000
  57.2 A"    4  3d1-          1.254000     1.000000
  58.2 A"    4  3d2-          0.169000     1.000000
  59.2 A"    4  3d1-          0.169000     1.000000
  60.2 A"    4  4f1-          0.890000     1.000000
  61.2 A"    4  4f2-          0.890000     1.000000
  62.2 A"    4  4f3-          0.890000     1.000000
  63.2 A"    4  4f1-          0.406000     1.000000
  64.2 A"    4  4f2-          0.406000     1.000000
  65.2 A"    4  4f3-          0.406000     1.000000

 NUCLEAR CHARGE:                   39
 NUMBER OF PRIMITIVE AOS:         285
 NUMBER OF SYMMETRY AOS:          249
 NUMBER OF CONTRACTIONS:          188   ( 123A'  +  65A"  )
 NUMBER OF CORE ORBITALS:           8   (   7A'  +   1A"  )
 NUMBER OF VALENCE ORBITALS:       16   (  12A'  +   4A"  )


 NUCLEAR REPULSION ENERGY  132.38183712


 Eigenvalues of metric

         1 0.193E-03 0.308E-03 0.446E-03 0.824E-03 0.109E-02 0.135E-02 0.150E-02 0.205E-02
         2 0.260E-02 0.304E-02 0.102E-01 0.147E-01 0.197E-01 0.212E-01 0.270E-01 0.310E-01


 Contracted 2-electron integrals neglected if value below      1.0D-11
 AO integral compression algorithm  1   Integral accuracy      1.0D-11

     370.409 MB (compressed) written to integral file ( 47.6%)

     Node minimum: 370.409 MB, node maximum: 370.409 MB


 NUMBER OF SORTED TWO-ELECTRON INTEGRALS:   80456646.     BUFFER LENGTH:  32768
 NUMBER OF SEGMENTS:   6  SEGMENT LENGTH:   15997996      RECORD LENGTH: 524288

 Memory used in sort:      16.56 MW

 SORT1 READ    97245779. AND WROTE    76479524. INTEGRALS IN    223 RECORDS. CPU TIME:     0.95 SEC, REAL TIME:     2.13 SEC
 SORT2 READ    76479524. AND WROTE    80456646. INTEGRALS IN   1413 RECORDS. CPU TIME:     1.03 SEC, REAL TIME:     1.30 SEC

 FILE SIZES:   FILE 1:   318.1 MBYTE,  FILE 4:   935.4 MBYTE,   TOTAL:   1253.4 MBYTE

 OPERATOR DM      FOR CENTER  0  COORDINATES:    0.000000    0.000000    0.000000


 **********************************************************************************************************************************
 DATASETS  * FILE   NREC   LENGTH (MB)   RECORD NAMES
              1      19      318.28       500      610      700      900      950      970     1001      129      960     1100   
                                          VAR    BASINP    GEOM    SYMINP    ZMAT    AOBASIS   BASIS     P2S    ABASIS      S 
                                         1400     1410     1200     1210     1080     1600     1650     1300     1700   
                                           T        V       H0       H01     AOSYM     SMH    MOLCAS    ERIS     OPER   

              2       4        0.46       700     1000     2100     1001   
                                         GEOM     BASIS     RHF     BASIS   

 PROGRAMS   *        TOTAL       INT        HF       INT
 CPU TIMES  *         7.98      7.64      0.07      0.22
 REAL TIME  *        11.27 SEC
 DISK USED  *         1.62 GB      
 GA USED    *         0.00 MB       (max)       0.00 MB       (current)
 **********************************************************************************************************************************

1PROGRAM * RHF-SCF (OPEN SHELL)       Authors: W. Meyer, H.-J. Werner


 NUMBER OF ELECTRONS:      20+   19-    SPACE SYMMETRY=1    SPIN SYMMETRY=Doublet 
 CONVERGENCE THRESHOLDS:    1.00E-05 (Density)    1.00E-07 (Energy)
 MAX. NUMBER OF ITERATIONS:       60
 INTERPOLATION TYPE:            DIIS
 INTERPOLATION STEPS:              2 (START)      1 (STEP)
 LEVEL SHIFTS:                 -0.30 (CLOSED)  0.00 (OPEN) 


 Singly occupied orbitals:     16.1
 Molecular orbitals read from record     2100.2  Type=RHF/CANONICAL (state 1.1)
 
 Present basis size:     123  65
 Previous basis size:     43  17
 Previous occupation:     16   4
 Previous closed-shells:  16   4
 Previous core-orbitals:   7   1
 Present occupation:      16   4
 Present closed-shells:   16   4
 Present core-orbitals:    7   1
 Wavefunction symmetry:    1   Singlet 

 Orbital overlap <old|new>:  < 1.1| 1.1> = 1.000000   < 2.1| 2.1> = 0.999999   < 3.1| 3.1> = 0.999999   < 4.1| 4.1> = 0.999995
                             < 5.1| 5.1> = 0.999999   < 6.1| 6.1> = 0.999994   < 7.1| 7.1> = 0.999994   < 1.2| 1.2> = 0.999994
                             < 8.1| 8.1> = 0.999968   < 9.1| 9.1> = 0.999979   <10.1|10.1> = 0.999957   <11.1|11.1> = 0.999944
                             <12.1|12.1> = 0.999931   <13.1|13.1> = 0.999927   <14.1|14.1> = 0.999927   <15.1|15.1> = 0.999914
                             <16.1|16.1> = 0.999871   < 2.2| 2.2> = 0.999930   < 3.2| 3.2> = 0.999895   < 4.2| 4.2> = 0.999867

 Molecular orbital dump at record        2101.2

 ITERATION    DDIFF          GRAD             ENERGY        2-EL.EN.            DIPOLE MOMENTS         DIIS
    1      0.000D+00      0.000D+00      -693.76072413    781.075558    0.09541    0.00000   -0.35342    0
    2      0.000D+00      0.645D-02      -693.82265411    786.055368    0.16351    0.00000   -0.63967    1
    3      0.114D-01      0.128D-02      -693.82776709    785.613596    0.14657    0.00000   -0.44908    2
    4      0.284D-02      0.523D-03      -693.82934642    785.626991    0.15827    0.00000   -0.46794    3
    5      0.108D-02      0.241D-03      -693.83045274    785.719629    0.15094    0.00000   -0.40981    4
    6      0.698D-03      0.181D-03      -693.83113558    785.706487    0.15592    0.00000   -0.39339    5
    7      0.352D-03      0.134D-03      -693.83192476    785.786359    0.15149    0.00000   -0.33958    6
    8      0.433D-03      0.127D-03      -693.83255057    785.824716    0.15306    0.00000   -0.29547    7
    9      0.472D-03      0.778D-04      -693.83281431    785.860089    0.15455    0.00000   -0.26126    8
   10      0.445D-03      0.229D-04      -693.83283206    785.873403    0.15388    0.00000   -0.24624    9
   11      0.156D-03      0.927D-05      -693.83283246    785.861239    0.15472    0.00000   -0.25348    9
   12      0.489D-04      0.861D-05      -693.83283332    785.866487    0.15435    0.00000   -0.25039    9
   13      0.210D-04      0.288D-05      -693.83283348    785.867711    0.15424    0.00000   -0.24907    9
   14      0.144D-04      0.123D-05      -693.83283350    785.866897    0.15429    0.00000   -0.24979    9
   15      0.716D-05      0.134D-05      -693.83283351    785.867953    0.15418    0.00000   -0.24933    0

 Final alpha occupancy:  16   4
 Final beta  occupancy:  15   4

 !RHF STATE 1.1 Energy               -693.832833511484
 Nuclear energy                       132.38183712
 One-electron energy                -1219.14864718
 Two-electron energy                  392.93397655
 Virial quotient                       -0.99909961
 !RHF STATE 1.1 Dipole moment           0.15417870     0.00000000    -0.24932808
 Dipole moment /Debye                   0.39185751     0.00000000    -0.63368725

 ELECTRON ORBITALS
 =================


   Orb  Occ    Energy  Couls-En    Coefficients

                                   1 1s      1 1s      1 1s      1 1s      1 1s      1 2px     1 2pz     1 2px     1 2pz     1 2px  
                                   1 2pz     1 2px     1 2pz     1 3d0     1 3d1+    1 3d2+    1 3d0     1 3d1+    1 3d2+    1 3d0  
                                   1 3d1+    1 3d2+    1 4f1+    1 4f0     1 4f3+    1 4f2+    1 4f1+    1 4f0     1 4f3+    1 4f2+ 
                                   2 1s      2 1s      2 1s      2 1s      2 1s      2 2px     2 2pz     2 2px     2 2pz     2 2px  
                                   2 2pz     2 2px     2 2pz     2 3d0     2 3d1+    2 3d2+    2 3d0     2 3d1+    2 3d2+    2 3d0  
                                   2 3d1+    2 3d2+    2 4f1+    2 4f0     2 4f3+    2 4f2+    2 4f1+    2 4f0     2 4f3+    2 4f2+ 
                                   3 1s      3 1s      3 1s      3 1s      3 1s      3 2px     3 2pz     3 2px     3 2pz     3 2px  
                                   3 2pz     3 2px     3 2pz     3 3d0     3 3d1+    3 3d2+    3 3d0     3 3d1+    3 3d2+    3 3d0  
                                   3 3d1+    3 3d2+    3 4f1+    3 4f0     3 4f3+    3 4f2+    3 4f1+    3 4f0     3 4f3+    3 4f2+ 
                                   4 1s      4 1s      4 1s      4 1s      4 1s      4 1s      4 2px     4 2pz     4 2px     4 2pz  
                                   4 2px     4 2pz     4 2px     4 2pz     4 2px     4 2pz     4 3d0     4 3d1+    4 3d2+    4 3d0  
                                   4 3d1+    4 3d2+    4 3d0     4 3d1+    4 3d2+    4 4f1+    4 4f0     4 4f3+    4 4f2+    4 4f1+ 
                                   4 4f0     4 4f3+    4 4f2+ 

   1.1   2  -118.5944 -284.9366  0.000002  0.000008  0.000000  0.000008 -0.000006 -0.000001 -0.000001  0.000006 -0.000008  0.000000
                                -0.000010  0.000001  0.000005  0.000000  0.000000  0.000000  0.000000 -0.000001 -0.000001  0.000012
                                -0.000002  0.000000  0.000001  0.000000  0.000000  0.000000 -0.000003  0.000002 -0.000001  0.000001
                                -0.000001 -0.000003  0.000000  0.000003  0.000003 -0.000001  0.000000  0.000001 -0.000001  0.000001
                                -0.000010 -0.000001 -0.000005  0.000000  0.000000  0.000000  0.000002 -0.000001  0.000000  0.000002
                                -0.000002  0.000000  0.000000  0.000000  0.000000  0.000000  0.000000  0.000000  0.000000  0.000000
                                -0.000002 -0.000004  0.000001  0.000010  0.000024  0.000000  0.000000  0.000000  0.000001 -0.000008
                                -0.000048 -0.000003  0.000004  0.000000  0.000000  0.000000 -0.000001  0.000001  0.000000  0.000008
                                 0.000013  0.000002  0.000000  0.000000  0.000000  0.000000 -0.000001 -0.000002  0.000000  0.000000
                                 1.000006  0.000039  0.000052 -0.000023 -0.000088 -0.000004 -0.000011 -0.000016 -0.000011 -0.000015
                                 0.000010  0.000014 -0.000009 -0.000032  0.000000  0.000000 -0.000004 -0.000004 -0.000001  0.000000
                                 0.000000  0.000000 -0.000012 -0.000009 -0.000001  0.000002  0.000001  0.000000  0.000001 -0.000004
                                -0.000003  0.000000 -0.000002

   2.1   2   -20.6692  -62.1054  0.000699  0.002619 -0.000439  0.000906  0.000100  0.000456 -0.000973  0.000510 -0.001347  0.000540
                                -0.001491 -0.000032 -0.000028  0.000381 -0.000333  0.000070  0.001489 -0.001004  0.000167  0.000020
                                 0.000097 -0.000069 -0.000057  0.000072 -0.000015  0.000026  0.000861 -0.000563  0.000045 -0.000295
                                -0.000003 -0.000018  0.000064  0.000184  0.000392  0.000028 -0.000023 -0.000196  0.000289 -0.000262
                                 0.000238  0.000051 -0.000139 -0.000065  0.000051 -0.000007  0.000012  0.000063 -0.000044  0.000024
                                 0.000026 -0.000003 -0.000078  0.000049 -0.000008  0.000034  0.000104 -0.000086  0.000005 -0.000029
                                 0.998319 -0.004029  0.001719 -0.001187 -0.001774 -0.002767  0.005043  0.002436 -0.004819  0.001321
                                -0.000573  0.000338 -0.000137  0.000219 -0.000137 -0.000018 -0.000776  0.000409 -0.000188  0.000371
                                -0.000444 -0.000004  0.000022 -0.000050  0.000003 -0.000019  0.000304  0.000035  0.000005  0.000003
                                -0.000009 -0.000080 -0.000207 -0.000081  0.000855  0.000364  0.000106  0.000216  0.000313  0.000644
                                -0.000180 -0.000364 -0.000016  0.000288  0.000000  0.000065  0.000279  0.000249  0.000054 -0.000036
                                -0.000038 -0.000008  0.000128  0.000016 -0.000067  0.000050  0.000022  0.000020  0.000034  0.000133
                                 0.000091 -0.000030  0.000009

   3.1   2   -15.6397  -46.8774  0.000776  0.002663  0.000007 -0.003386 -0.000313 -0.000644  0.001432  0.000273 -0.000715  0.001916
                                -0.004757 -0.000055  0.000055  0.000204 -0.000187  0.000010  0.000586 -0.000497  0.000134 -0.000705
                                 0.000523 -0.000096  0.000626 -0.000434  0.000027 -0.000209  0.000153 -0.000266 -0.000008 -0.000013
                                 0.998975 -0.002209  0.001275  0.005761  0.000713  0.002814 -0.006839 -0.001945  0.004882 -0.000539
                                 0.001769  0.000076 -0.000102  0.000394 -0.000366  0.000005 -0.000575  0.000370 -0.000197 -0.000288
                                 0.000196 -0.000022  0.000072 -0.000031 -0.000007 -0.000008 -0.000287  0.000210 -0.000023  0.000119
                                -0.000511 -0.001606  0.000324 -0.001174 -0.002037 -0.000026  0.000073  0.000394 -0.000992  0.000228
                                 0.001560  0.000389 -0.000335 -0.000058  0.000055 -0.000007 -0.000200  0.000193 -0.000058  0.000123
                                -0.000809  0.000055  0.000050 -0.000058  0.000008 -0.000042  0.000126  0.000069 -0.000010  0.000062
                                -0.000021 -0.000139 -0.000262 -0.000008  0.001253  0.000590  0.000059  0.000183  0.000183  0.000568
                                -0.000089 -0.000267  0.000292  0.000582 -0.000004  0.000109  0.000157  0.000120  0.000026 -0.000006
                                -0.000009 -0.000001  0.000173  0.000217 -0.000037 -0.000009  0.000014  0.000020  0.000015  0.000096
                                 0.000008 -0.000040 -0.000014

   4.1   2   -12.3111  -55.6704 -0.000013 -0.000026  0.000013 -0.000498  0.000605  0.000046  0.000006 -0.000281  0.000332  0.000046
                                 0.000374  0.000005 -0.000307  0.000015  0.000015 -0.000002 -0.000147  0.000071 -0.000007 -0.000562
                                 0.000076  0.000042 -0.000052  0.000001 -0.000005  0.000025  0.000148 -0.000015 -0.000006  0.000015
                                 0.000040  0.000126 -0.000001  0.000081 -0.000060  0.000015  0.000003 -0.000028  0.000031  0.000025
                                 0.000327  0.000098  0.000229  0.000000  0.000005  0.000005 -0.000084  0.000008 -0.000027 -0.000074
                                 0.000029 -0.000011 -0.000007  0.000014  0.000003 -0.000001  0.000014  0.000016 -0.000015  0.000005
                                 0.000008 -0.000004 -0.000045  0.000466 -0.000372  0.000016  0.000039 -0.000088  0.000009 -0.000031
                                 0.000875 -0.000055 -0.000671 -0.000014 -0.000007 -0.000003  0.000155  0.000044  0.000027 -0.000179
                                -0.000150  0.000016 -0.000034 -0.000013  0.000002 -0.000009 -0.000003  0.000024 -0.000014 -0.000023
                                -0.000231  0.998685 -0.001854  0.000892  0.002956 -0.001252 -0.000103  0.000002  0.000048 -0.000176
                                -0.000017  0.000166  0.000234  0.000846 -0.000128 -0.000219 -0.000086 -0.000006  0.000011  0.000113
                                 0.000064  0.000014  0.000311  0.000188  0.000030 -0.000013 -0.000012  0.000000 -0.000007  0.000014
                                 0.000012  0.000002  0.000014

   5.1   2   -11.4135  -39.4398  1.000218  0.005372  0.003142 -0.003279  0.001222  0.000042 -0.002792 -0.000187  0.003525  0.000319
                                 0.001498  0.000157  0.000097  0.001422 -0.001209  0.000322 -0.002036  0.001299 -0.000272 -0.000433
                                 0.000490 -0.000044 -0.000111  0.000131  0.000032 -0.000015 -0.000095  0.000189 -0.000009 -0.000024
                                -0.000125  0.001476  0.000285 -0.001136 -0.001497  0.000457 -0.001060 -0.000380  0.000747 -0.001063
                                 0.001857 -0.000300  0.000386  0.000018 -0.000014 -0.000016 -0.000938  0.000878 -0.000215 -0.000461
                                 0.000463 -0.000156 -0.000109  0.000059 -0.000015  0.000054 -0.000598  0.000384 -0.000039  0.000235
                                 0.000243  0.002394 -0.000038  0.001900  0.000035 -0.000461  0.001083 -0.000107  0.000110 -0.000547
                                -0.002172 -0.000165 -0.001169  0.000125 -0.000102  0.000027 -0.000671  0.000491 -0.000062 -0.000761
                                 0.000546  0.000165 -0.000066  0.000055  0.000001  0.000030  0.000644 -0.000585  0.000000 -0.000224
                                 0.000053  0.000335  0.000574 -0.000120 -0.001027 -0.001579 -0.000029 -0.000009 -0.000081 -0.000022
                                 0.000056  0.000036 -0.000208 -0.001180 -0.000196 -0.000202 -0.000107 -0.000083 -0.000073  0.000035
                                 0.000013  0.000017 -0.000451 -0.000156  0.000004  0.000014  0.000051  0.000012 -0.000005 -0.000039
                                -0.000108 -0.000059 -0.000057

   6.1   2    -9.5603  -52.2034  0.000317  0.001056  0.000072 -0.000799 -0.001112  0.000089  0.000025  0.000103 -0.000947 -0.000792
                                 0.000366 -0.000290  0.000429 -0.000033  0.000108  0.000081 -0.001043  0.000162 -0.000251  0.000421
                                -0.000897 -0.000162 -0.000118 -0.000025  0.000086  0.000004 -0.000174  0.000612 -0.000263  0.000412
                                -0.000053 -0.000188 -0.000051  0.000608  0.000671 -0.000062  0.000104  0.000156 -0.000284  0.001117
                                -0.001425  0.000319 -0.000445 -0.000007  0.000038  0.000020  0.000104 -0.000354 -0.000040  0.000393
                                -0.000451  0.000193  0.000003  0.000012  0.000006 -0.000021  0.000111  0.000013 -0.000007 -0.000007
                                -0.000258 -0.000790 -0.000010  0.004467  0.001631  0.000171 -0.000027 -0.000335  0.000668 -0.002046
                                -0.008155  0.000267  0.000688 -0.000054 -0.000079 -0.000025  0.000535  0.000476  0.000170  0.001467
                                 0.003193  0.000721 -0.000042  0.000011  0.000030  0.000005 -0.000527 -0.000478 -0.000143 -0.000296
                                 0.000310  0.001855  0.003497 -0.000454 -0.010421  0.001046  0.394175  0.916646 -0.002295 -0.005730
                                 0.001273  0.003266 -0.000812 -0.001587 -0.000007  0.000101 -0.001718 -0.001382 -0.000340  0.000465
                                 0.000371  0.000091 -0.000728 -0.000734 -0.000019  0.000085  0.000032 -0.000007 -0.000003 -0.000730
                                -0.000414 -0.000023 -0.000203

   7.1   2    -9.5586  -52.1769  0.000043  0.000154  0.000081 -0.000063 -0.000042  0.000076  0.000081  0.000293 -0.000291  0.000224
                                -0.003580  0.000372 -0.000999 -0.000074 -0.000063  0.000038  0.000293  0.000378 -0.000137  0.000778
                                 0.000747 -0.000108  0.000045  0.000030  0.000030 -0.000062 -0.000036 -0.000124 -0.000078  0.000000
                                 0.000005  0.000021 -0.000004  0.002061  0.000988  0.000015  0.000049 -0.000001 -0.000221 -0.000240
                                -0.000459 -0.000260  0.000317 -0.000006 -0.000024  0.000002  0.000179  0.000124 -0.000031 -0.000327
                                 0.000109 -0.000190  0.000000 -0.000037  0.000002 -0.000012 -0.000053  0.000021 -0.000012  0.000097
                                -0.000014 -0.000045  0.000001 -0.000839  0.000076  0.000039  0.000020 -0.000063 -0.000020  0.000624
                                -0.001203  0.000052  0.000726 -0.000011  0.000011  0.000014 -0.000011  0.000012 -0.000051  0.000772
                                 0.000337 -0.000092  0.000003  0.000032 -0.000015 -0.000014 -0.000021 -0.000331  0.000065  0.000123
                                 0.000067  0.000540  0.000623 -0.000182 -0.001396 -0.001437  0.918085 -0.394666 -0.001435  0.000686
                                 0.001017 -0.000517  0.000830 -0.002235 -0.000602 -0.000023  0.000146 -0.000369 -0.000136 -0.000092
                                 0.000147  0.000050 -0.000699 -0.000078 -0.000032  0.000020 -0.000011  0.000013  0.000035 -0.000128
                                 0.000054 -0.000046 -0.000155

   8.1   2    -1.5367  -18.1487 -0.013018  0.408621 -0.001139 -0.090701  0.020308  0.101759 -0.242746 -0.024758  0.050261 -0.049662
                                 0.117996  0.000618  0.001964  0.018402 -0.013986  0.003653  0.011507 -0.007194  0.002733 -0.009083
                                 0.008493 -0.001847  0.002799 -0.003371  0.000446 -0.001252 -0.001656  0.000914 -0.000267  0.001134
                                -0.000808  0.056665  0.001204 -0.060486 -0.036306  0.010314 -0.027130 -0.002357  0.006739 -0.017659
                                 0.039168 -0.005220  0.010043  0.000996 -0.000853  0.000139 -0.005308  0.003860 -0.001106 -0.005511
                                 0.004789 -0.001587 -0.000705  0.000542  0.000020  0.000134 -0.002635  0.002161 -0.000321  0.001107
                                -0.008171  0.806153 -0.008033 -0.059056  0.008036 -0.093022  0.135697 -0.003941  0.002116  0.025125
                                -0.060596  0.001497 -0.014525  0.005934 -0.004802  0.001260  0.015642 -0.009934  0.003543 -0.010037
                                 0.013943 -0.001188 -0.003265  0.001858 -0.000348  0.001169 -0.002244  0.000521 -0.000273 -0.000666
                                 0.000218 -0.000626  0.191881 -0.002051 -0.015939 -0.018190 -0.001302 -0.003293  0.021825  0.057617
                                 0.000259  0.000340 -0.006251 -0.021511 -0.003358 -0.003069  0.006024  0.004107  0.001060  0.004841
                                 0.003538  0.000665 -0.003881 -0.001477  0.000873  0.001948  0.001584 -0.000114  0.000338  0.000491
                                 0.000995  0.000618  0.000997

   9.1   2    -1.2935  -18.8462  0.005000 -0.285297 -0.000262  0.059963 -0.003268 -0.017672  0.005645 -0.008586  0.016027  0.005743
                                -0.005818 -0.001981 -0.004837 -0.009134  0.009601 -0.002611 -0.001920  0.006356 -0.002059 -0.005331
                                -0.002563  0.001281 -0.001927  0.000273 -0.000401  0.001221  0.001876 -0.003364  0.000064  0.000232
                                 0.002956 -0.187886  0.001859  0.035387  0.010568 -0.030503  0.066147  0.000220  0.000768  0.011347
                                -0.016275  0.004213 -0.000225 -0.003016  0.002653 -0.000421 -0.005179  0.003983 -0.000478  0.000528
                                -0.000258  0.000931 -0.000845  0.000803 -0.000073  0.000347 -0.000052 -0.000211 -0.000025 -0.000098
                                 0.000483 -0.100644  0.000243  0.027608 -0.004376  0.003114 -0.172773 -0.002275  0.002407 -0.006220
                                 0.079604  0.001044  0.003252 -0.001884  0.003135 -0.000042  0.001173  0.006638  0.000572  0.005598
[...]
                                 0.000029  0.000099  0.000004  0.000109 -0.000043  0.000005  0.000001 -0.000024  0.000027  0.000055
                                 0.000285  0.000107  0.000220 -0.000001  0.000006  0.000005 -0.000079  0.000000 -0.000026 -0.000063
                                 0.000018 -0.000005 -0.000007  0.000014  0.000004 -0.000002  0.000015  0.000015 -0.000015  0.000004
                                 0.000001 -0.000005 -0.000033  0.000538 -0.000368  0.000037  0.000034 -0.000083  0.000044 -0.000073
                                 0.000699 -0.000035 -0.000610 -0.000018 -0.000011 -0.000004  0.000153  0.000033  0.000026 -0.000139
                                -0.000091  0.000026 -0.000026 -0.000008  0.000003 -0.000006 -0.000028 -0.000002 -0.000015 -0.000029
                                -0.000191  0.998859 -0.001900  0.000675  0.002814 -0.001158 -0.000031 -0.000154 -0.000075 -0.000412
                                 0.000039  0.000212  0.000284  0.000937 -0.000121 -0.000206 -0.000081 -0.000022  0.000007  0.000013
                                 0.000003 -0.000002  0.000305  0.000185  0.000032 -0.000032 -0.000030 -0.000002 -0.000015  0.000042
                                 0.000035  0.000004  0.000025

   3.1   2    -9.5721  -47.7332  0.000040  0.000147  0.000090 -0.000075 -0.000040  0.000070  0.000062  0.000300 -0.000233  0.000209
                                -0.003537  0.000356 -0.000994 -0.000074 -0.000060  0.000037  0.000261  0.000366 -0.000131  0.000768
                                 0.000727 -0.000105  0.000039  0.000034  0.000031 -0.000061 -0.000034 -0.000119 -0.000078  0.000003
                                 0.000003  0.000013 -0.000003  0.002030  0.000963  0.000013  0.000044 -0.000001 -0.000206 -0.000221
                                -0.000445 -0.000250  0.000320 -0.000006 -0.000022  0.000001  0.000172  0.000122 -0.000031 -0.000326
                                 0.000103 -0.000185 -0.000001 -0.000036  0.000002 -0.000012 -0.000052  0.000021 -0.000012  0.000095
                                -0.000012 -0.000043 -0.000002 -0.000769  0.000067  0.000021  0.000017 -0.000059  0.000007  0.000582
                                -0.001254  0.000052  0.000762 -0.000012  0.000010  0.000014  0.000000 -0.000003 -0.000047  0.000769
                                 0.000347 -0.000080  0.000003  0.000034 -0.000014 -0.000013 -0.000027 -0.000348  0.000063  0.000121
                                 0.000056  0.000347  0.000608 -0.000123 -0.001425 -0.001385  0.919748 -0.391261 -0.001378  0.000556
                                 0.000714 -0.000283  0.000785 -0.002167 -0.000578 -0.000025  0.000172 -0.000399 -0.000163 -0.000056
                                 0.000085  0.000039 -0.000714 -0.000064 -0.000018 -0.000007  0.000019  0.000007  0.000020 -0.000112
                                 0.000031 -0.000042 -0.000142

   4.1   2    -9.5720  -47.7318  0.000237  0.000841  0.000113 -0.000883 -0.001174  0.000086  0.000019  0.000070 -0.000875 -0.000822
                                 0.000463 -0.000306  0.000414 -0.000035  0.000105  0.000076 -0.001020  0.000183 -0.000248  0.000371
                                -0.000903 -0.000167 -0.000122 -0.000022  0.000082  0.000005 -0.000160  0.000597 -0.000256  0.000408
                                -0.000049 -0.000178 -0.000052  0.000585  0.000681 -0.000049  0.000090  0.000139 -0.000263  0.001109
                                -0.001408  0.000328 -0.000431 -0.000008  0.000037  0.000019  0.000103 -0.000347 -0.000044  0.000401
                                -0.000444  0.000195  0.000003  0.000013  0.000006 -0.000021  0.000111  0.000008 -0.000008 -0.000007
                                -0.000208 -0.000715 -0.000031  0.004243  0.001396  0.000160  0.000008 -0.000300  0.000681 -0.001926
                                -0.007649  0.000320  0.000803 -0.000055 -0.000077 -0.000024  0.000514  0.000432  0.000161  0.001419
                                 0.003060  0.000694 -0.000035  0.000014  0.000029  0.000007 -0.000513 -0.000462 -0.000138 -0.000284
                                 0.000235  0.001536  0.002810 -0.000202 -0.009567  0.001359  0.390693  0.918338 -0.002267 -0.005622
                                 0.001182  0.002910 -0.000655 -0.001198  0.000012  0.000144 -0.001627 -0.001300 -0.000322  0.000288
                                 0.000234  0.000061 -0.000597 -0.000646 -0.000003  0.000015 -0.000032 -0.000012 -0.000027 -0.000649
                                -0.000347 -0.000018 -0.000176

   5.1   2    -1.2777  -14.7909  0.000076  0.000297  0.000185 -0.005184  0.005683  0.000125 -0.000213 -0.001582  0.002100  0.000416
                                 0.002865  0.000026 -0.003442  0.000115  0.000028 -0.000018 -0.001154  0.000297 -0.000189 -0.005755
                                 0.000918  0.000274 -0.000174  0.000106 -0.000070  0.000151  0.001490 -0.000098 -0.000215  0.000277
                                 0.000216  0.000769  0.000118  0.002612  0.000401  0.000057 -0.000026 -0.000219  0.000081  0.000616
                                 0.002345  0.001191  0.002317  0.000009  0.000036  0.000034 -0.000527  0.000030 -0.000318 -0.000533
                                 0.000100 -0.000069 -0.000057  0.000074  0.000004  0.000020  0.000168  0.000080 -0.000136  0.000092
                                 0.000132  0.000443 -0.000189  0.001105 -0.004590  0.000092  0.000078 -0.000583 -0.000339  0.000810
                                 0.009414 -0.000291 -0.006808  0.000023  0.000037 -0.000011  0.000545 -0.000042  0.000208 -0.002070
                                -0.001427  0.000367 -0.000065 -0.000010  0.000034 -0.000002  0.000466  0.000269 -0.000182  0.000111
                                -0.000153 -0.000958  0.998323  0.000138  0.006601 -0.000410  0.000096 -0.000352  0.000287 -0.001111
                                -0.000158  0.000482  0.003373  0.009766 -0.001475 -0.002415  0.000106  0.000504  0.000204  0.000017
                                -0.000056 -0.000031  0.003205  0.002203  0.000374 -0.000133 -0.000108 -0.000005 -0.000065  0.000633
                                 0.000373  0.000036  0.000287

   6.1   2    -0.5913  -12.3747  0.000260  0.000989  0.000535  0.000635 -0.014283  0.000146 -0.000185  0.000765 -0.002601 -0.007838
                                 0.003020 -0.005864  0.002131 -0.000054 -0.000023  0.000043 -0.001087 -0.000937 -0.001311 -0.003800
                                -0.006160 -0.001768  0.000327  0.000082 -0.000029 -0.000030  0.000414 -0.000469 -0.000979  0.001394
                                 0.000108  0.000380 -0.000066 -0.001685  0.001987 -0.000017  0.000012  0.000299 -0.000322  0.005757
                                -0.001127  0.003868 -0.000708  0.000018  0.000064  0.000046  0.000200 -0.000920 -0.000264  0.001557
                                -0.001094  0.002143  0.000057  0.000047 -0.000051  0.000028  0.000180 -0.000476  0.000174 -0.000113
                                 0.000191  0.000691  0.000261 -0.004683 -0.023198 -0.000123 -0.000281 -0.000196 -0.000558  0.001582
                                -0.002271  0.010199  0.017634  0.000076  0.000069 -0.000010 -0.000971 -0.000659  0.000023  0.001156
                                 0.005784  0.002197  0.000213  0.000163  0.000108  0.000108  0.001361  0.000287 -0.000465  0.000515
                                 0.000207  0.001289  0.002304 -0.000474 -0.010962  0.044118 -0.000048 -0.000328  0.226871  0.972619
                                 0.000020  0.000395  0.000963  0.001587  0.006989  0.021943 -0.001452 -0.000308 -0.000126  0.000284
                                 0.000067  0.000029  0.004006  0.002005  0.000802  0.000059  0.000036 -0.000004 -0.000028  0.000359
                                 0.000159  0.000042  0.000257

   7.1   2    -0.5912  -12.3736  0.000145  0.000543  0.000089 -0.000743 -0.002962  0.000319  0.000337 -0.001823 -0.003208 -0.001417
                                -0.021061  0.000467 -0.006127  0.000015 -0.000044  0.000057  0.002545  0.002837 -0.001577  0.007275
                                 0.004248 -0.001691 -0.000020 -0.000212  0.000039  0.000047  0.000920  0.000502 -0.000737  0.000306
                                 0.000054  0.000189 -0.000039  0.009837  0.005725  0.000086  0.000148 -0.000314 -0.000932 -0.001774
                                -0.003533 -0.001401  0.001777 -0.000035 -0.000044  0.000051  0.000731  0.000260 -0.000457 -0.001793
                                -0.000035 -0.001052 -0.000016 -0.000073  0.000016 -0.000055  0.000206  0.000382 -0.000154  0.000417
                                 0.000073  0.000259  0.000067 -0.008456  0.000440 -0.000041 -0.000032  0.000069 -0.000217  0.005804
                                -0.004597  0.003862  0.010080  0.000009 -0.000028  0.000037 -0.000030  0.000191 -0.000431  0.007219
                                 0.005669 -0.000356  0.000061  0.000050 -0.000022 -0.000008  0.000429  0.000420  0.000190 -0.000165
                                 0.000202  0.001288  0.002350 -0.000304 -0.009069 -0.001150  0.001186 -0.000577  0.977377 -0.228862
                                -0.001676  0.000789 -0.010744 -0.005825  0.011533 -0.002705  0.000341 -0.001234 -0.000399 -0.000102
                                 0.000236  0.000081 -0.003189 -0.000098  0.000032  0.000080 -0.000023  0.000021  0.000078 -0.000290
                                 0.000135 -0.000065 -0.000257

                                   1 2py     1 2py     1 2py     1 2py     1 3d2-    1 3d1-    1 3d2-    1 3d1-    1 3d2-    1 3d1- 
                                   1 4f1-    1 4f2-    1 4f3-    1 4f1-    1 4f2-    1 4f3-    2 2py     2 2py     2 2py     2 2py  
                                   2 3d2-    2 3d1-    2 3d2-    2 3d1-    2 3d2-    2 3d1-    2 4f1-    2 4f2-    2 4f3-    2 4f1- 
                                   2 4f2-    2 4f3-    3 2py     3 2py     3 2py     3 2py     3 3d2-    3 3d1-    3 3d2-    3 3d1- 
                                   3 3d2-    3 3d1-    3 4f1-    3 4f2-    3 4f3-    3 4f1-    3 4f2-    3 4f3-    4 2py     4 2py  
                                   4 2py     4 2py     4 2py     4 3d2-    4 3d1-    4 3d2-    4 3d1-    4 3d2-    4 3d1-    4 4f1- 
                                   4 4f2-    4 4f3-    4 4f1-    4 4f2-    4 4f3- 

   1.2   2    -9.5721  -47.7333 -0.000036  0.000066  0.000593  0.000835 -0.000019 -0.000007 -0.000200  0.000241 -0.000046  0.000507
                                 0.000052  0.000039 -0.000030  0.000000 -0.000032 -0.000077  0.000000 -0.000005 -0.000645 -0.000695
                                -0.000004 -0.000012 -0.000018  0.000101 -0.000228  0.000239 -0.000001  0.000000 -0.000009 -0.000038
                                 0.000073  0.000007 -0.000017 -0.000008  0.000349 -0.000418  0.000016  0.000018 -0.000057 -0.000046
                                 0.000001 -0.000005 -0.000042 -0.000029 -0.000010  0.000288  0.000203  0.000041  0.999612 -0.001181
                                 0.000613  0.001257 -0.000715 -0.000120 -0.000265  0.000032  0.000067  0.000053  0.000166 -0.000005
                                 0.000011  0.000003 -0.000094 -0.000103 -0.000029

   2.2   2    -0.5912  -12.3734 -0.000081  0.000427  0.004425  0.005802 -0.000036 -0.000036 -0.000293  0.001338 -0.000267  0.003150
                                 0.000033  0.000034 -0.000019 -0.000501 -0.000934  0.000213 -0.000005  0.000006 -0.003849 -0.005074
                                -0.000037 -0.000053  0.000210  0.000554 -0.001135  0.001486 -0.000013 -0.000014 -0.000012 -0.000265
                                 0.000149  0.000099 -0.000052  0.000251  0.000332 -0.002140  0.000042  0.000012 -0.000394 -0.000278
                                -0.000732 -0.000485 -0.000094 -0.000069 -0.000075  0.000408  0.000208  0.000367  0.001605  1.004813
                                -0.002257 -0.009131  0.010239 -0.000277 -0.000734  0.000065  0.000166  0.000247  0.000784  0.000038
                                 0.000047  0.000007 -0.000273 -0.000234 -0.000048


 **********************************************************************************************************************************
 DATASETS  * FILE   NREC   LENGTH (MB)   RECORD NAMES
              1      19      318.28       500      610      700      900      950      970     1001      129      960     1100   
                                          VAR    BASINP    GEOM    SYMINP    ZMAT    AOBASIS   BASIS     P2S    ABASIS      S 
                                         1400     1410     1200     1210     1080     1600     1650     1300     1700   
                                           T        V       H0       H01     AOSYM     SMH    MOLCAS    ERIS     OPER   

              2       7        2.52       700     1000     2100     1001     2101     2102     2103   
                                         GEOM     BASIS     RHF     BASIS     RHF      RHF      RHF  

 PROGRAMS   *        TOTAL        HF       INT  RCCSD(T)        HF       INT  RCCSD(T)        HF       INT        HF       INT
 CPU TIMES  *       908.84      2.29      0.03    200.15      5.56      0.03    686.20      6.59      7.64      0.07      0.22
 REAL TIME  *       925.58 SEC
 DISK USED  *         1.91 GB      
 GA USED    *         0.00 MB       (max)       0.00 MB       (current)
 **********************************************************************************************************************************


1PROGRAM * CCSD (Restricted open-shell coupled cluster)     Authors: C. Hampel, H.-J. Werner, 1991, M. Deegan, P.J. Knowles, 1992


 Convergence thresholds:  THRVAR = 1.00D-08  THRDEN = 1.00D-06

 CCSD(T)     terms to be evaluated (factor= 1.000)


 Number of core orbitals:           5 (   4   1 )
 Number of closed-shell orbitals:   4 (   3   1 )
 Number of external orbitals:     179 ( 116  63 )

 Memory could be reduced to 33.39 Mwords without degradation in triples

 Number of N-1 electron functions:               8
 Number of N-2 electron functions:              28
 Number of singly external CSFs:               822
 Number of doubly external CSFs:            357532
 Total number of CSFs:                      358354

 Molecular orbitals read from record     2103.2  Type=RHF/CANONICAL (state 1.1)

 Integral transformation finished. Total CPU:   1.40 sec, npass=  1  Memory used:   5.18 MW

 Starting RMP2 calculation

 Wavefunction is spin-projected

 ITER.      SQ.NORM     CORR.ENERGY   TOTAL ENERGY   ENERGY CHANGE        DEN1      VAR(S)    VAR(P)  DIIS     TIME
   1      1.06211644    -0.21197166  -527.02545319    -0.21197166    -0.00068925  0.37D-13  0.24D-03  1  1     1.72
   2      1.06266368    -0.21270724  -527.02618877    -0.00073558    -0.00000030  0.32D-15  0.12D-06  2  2     1.75
   3      1.06267064    -0.21271233  -527.02619386    -0.00000509     0.00000000  0.40D-17  0.11D-09  3  3     1.77
   4      1.06267069    -0.21271234  -527.02619387    -0.00000001     0.00000000  0.43D-19  0.14D-12  4  4     1.80

 Norm of t1 vector:      0.00000189      S-energy:     0.00000000      T1 diagnostic:  0.00000047
 Norm of t2 vector:      0.25034116      P-energy:    -0.21271234
                                         Alpha-Beta:  -0.15983604
                                         Alpha-Alpha: -0.02643815
                                         Beta-Beta:   -0.02643815

 Spin contamination <S**2-Sz**2-Sz>     0.00000000
  Reference energy                   -526.813481530844
  RHF-RMP2 correlation energy          -0.212712337965
 !RHF-RMP2 energy                    -527.026193868808
 (NB above energy spin projected)

 Starting RCCSD calculation

 ITER.      SQ.NORM     CORR.ENERGY   TOTAL ENERGY   ENERGY CHANGE        DEN1      VAR(S)    VAR(P)  DIIS     TIME
   1      1.06929460    -0.22453352  -527.03801506    -0.22453352    -0.00459683  0.37D-04  0.12D-02  1  1     3.94
   2      1.07292520    -0.22951237  -527.04299390    -0.00497884    -0.00008000  0.20D-05  0.23D-04  2  2     6.07
   3      1.07325562    -0.22976334  -527.04324487    -0.00025097    -0.00000297  0.15D-06  0.84D-06  3  3     8.19
   4      1.07332339    -0.22980757  -527.04328910    -0.00004423    -0.00000014  0.16D-07  0.38D-07  4  4    10.33
   5      1.07333229    -0.22981183  -527.04329336    -0.00000426    -0.00000001  0.21D-08  0.17D-08  5  5    12.46
   6      1.07333313    -0.22981151  -527.04329304     0.00000032     0.00000000  0.14D-09  0.11D-09  6  6    14.60

 Norm of t1 vector:      0.00775710      S-energy:    -0.00000002      T1 diagnostic:  0.00193927
                                                                       D1 diagnostic:  0.00293702
 Norm of t2 vector:      0.27068978      P-energy:    -0.22981149
                                         Alpha-Beta:  -0.17850901
                                         Alpha-Alpha: -0.02565124
                                         Beta-Beta:   -0.02565124

 Spin contamination <S**2-Sz**2-Sz>     0.00000000

 Memory could be reduced to 32.07 Mwords without degradation in triples
 

 RESULTS
 =======

  Reference energy                   -526.813481530844
  RCCSD singles energy                 -0.000000022886
  RCCSD pair energy                    -0.229811486122
  RCCSD correlation energy             -0.229811509007
  Triples (T) contribution             -0.007465336409
  Total correlation energy             -0.237276845416
 
  RHF-RCCSD energy                   -527.043293039851
  RHF-RCCSD[T] energy                -527.050771211430
  RHF-RCCSD-T energy                 -527.050761306123
 !RHF-RCCSD(T) energy                -527.050758376260

 Program statistics:

 Available memory in ccsd:               999999732
 Min. memory needed in ccsd:               1447103
 Max. memory used in ccsd:                 1828065
 Max. memory used in cckext:               2330767 ( 6 integral passes)
 Max. memory used in cckint:               5179241 ( 1 integral passes)



 **********************************************************************************************************************************
 DATASETS  * FILE   NREC   LENGTH (MB)   RECORD NAMES
              1      19      318.28       500      610      700      900      950      970     1001      129      960     1100   
                                          VAR    BASINP    GEOM    SYMINP    ZMAT    AOBASIS   BASIS     P2S    ABASIS      S 
                                         1400     1410     1200     1210     1080     1600     1650     1300     1700   
                                           T        V       H0       H01     AOSYM     SMH    MOLCAS    ERIS     OPER   

              2       7        2.52       700     1000     2100     1001     2101     2102     2103   
                                         GEOM     BASIS     RHF     BASIS     RHF      RHF      RHF  

 PROGRAMS   *        TOTAL  RCCSD(T)        HF       INT  RCCSD(T)        HF       INT  RCCSD(T)        HF       INT        HF
 CPU TIMES  *       940.46     31.62      2.29      0.03    200.15      5.56      0.03    686.20      6.59      7.64      0.07
 REAL TIME  *       958.05 SEC
 DISK USED  *         1.91 GB      
 GA USED    *         0.00 MB       (max)       0.00 MB       (current)
 **********************************************************************************************************************************
 SETTING E_AR           =      -527.05075838  AU                              
 SETTING DE_CP          =     28777.33438309  CM-1                            

        RCCSD(T)        HF-SCF          RCCSD(T)        HF-SCF          RCCSD(T)        HF-SCF          HF-SCF  
   -527.05075838   -526.81348153   -167.76231539   -167.18145246   -694.68195458   -693.83283351   -693.83091435
 **********************************************************************************************************************************
 Variable memory released
