
 Primary working directories    : /tmp/yuant
 Secondary working directories  : /tmp/yuant
 Wavefunction directory         : /home/yuant/wfu/
 Main file repository           : /tmp/yuant/

 ARCHNAME  : Linux/x86_64
 FC        : /opt/intel/compilerpro-12.0.1.107/bin/intel64/ifort
 FCVERSION : 12.0.0
 BLASLIB   : 
 id        : scu

 Nodes     nprocs
 linux-en55    1
 ga_uses_ma=false, calling ma_init with nominal heap.
 GA-space will be limited to   8.0 MW (determined by -G option)

 Using customized tuning parameters: mindgm=4; mindgv=4; mindgc=1; mindgr=1; noblas=0; mincuda=1000; minvec=7
 default implementation of scratch files=df  

 MEMORY,1000,M
 print, basis, orbitals
 angstrom
 geometry={
 q1
 q2,q1,rqq
 C,q1,rcq1,q2,acq2
 N,q1,rnq1,q2,anq2,C,dnc
 O,q1,roq1,q2,aoq2,C,doc
 Ar,q1,rarq,O,aaro,q2,darq
 }
 rqq=1.0
 rcq1=0.036898
 rnq1=1.268889
 roq1=1.138557
 acq2=90
 anq2=90
 aoq2=90
 dnc=0
 doc=180
 darq=180                                                                        ! variables always fixed
  
 rarq=2.8                                                                        ! scan
 aaro=15                                                                         ! fixed here
  
 basis=cc-pvdz
 set,charge=-1
 {hf
 save,2100.2
 }
  
 basis=aug-cc-pvtz
 set,charge=0
 text,calculation for complex
 {hf
 open,16.1
 wf,39,1,1                                                                       ! 1: A' state in Cs group
 start,2100.2
 }
 rccsd(t)
 e_NCOAr=energy
  
 text,cp calculation for NCO
 dummy,Ar
 {hf
 open,9.1
 wf,21,1,1
 }
 rccsd(t)
 e_NCO=energy
  
 text, cp calculation for Ar
 dummy,N,C,O
 hf
 rccsd(t)
 e_Ar=energy
  
 de_cp=(e_NCOAr-e_NCO-e_Ar)*tocm

 Variables initialized (664), CPU time= 0.00 sec
 Commands  initialized (462), CPU time= 0.00 sec, 486 directives.
 Default parameters read. Elapsed time= 0.02 sec

 Checking input...
 Passed
1


                                         ***  PROGRAM SYSTEM MOLPRO  ***
                         Copyright, University College Cardiff Consultants Limited, 2008

                                    Version 2010.1 linked 26 Jan 2011 12:51:57


 **********************************************************************************************************************************
 LABEL *                                                                                 
 Linux-3.4.6-2.10-desktop/linux-en55(x86_64) 64 bit mpp version                          DATE: 02-Dec-18          TIME: 06:54:33  
 **********************************************************************************************************************************

 Patch level:      13
 **********************************************************************************************************************************

 ZUNIT=ANG
 
 SETTING RQQ            =         1.00000000                                  
 SETTING RCQ1           =         0.03689800                                  
 SETTING RNQ1           =         1.26888900                                  
 SETTING ROQ1           =         1.13855700                                  
 SETTING ACQ2           =        90.00000000                                  
 SETTING ANQ2           =        90.00000000                                  
 SETTING AOQ2           =        90.00000000                                  
 SETTING DNC            =         0.00000000                                  
 SETTING DOC            =       180.00000000                                  
 SETTING DARQ           =       180.00000000                                  
 SETTING RARQ           =         2.80000000                                  
 SETTING AARO           =        15.00000000                                  

 Variable memory set to 1000000000 words,  buffer space   230000 words

 SETTING BASIS          =    CC-PVDZ
 SETTING CHARGE         =        -1.00000000                                  


 Recomputing integrals since basis changed


 Using spherical harmonics

 Library entry C      S cc-pVDZ              selected for orbital group  1
 Library entry C      P cc-pVDZ              selected for orbital group  1
 Library entry C      D cc-pVDZ              selected for orbital group  1
 Library entry N      S cc-pVDZ              selected for orbital group  2
 Library entry N      P cc-pVDZ              selected for orbital group  2
 Library entry N      D cc-pVDZ              selected for orbital group  2
 Library entry O      S cc-pVDZ              selected for orbital group  3
 Library entry O      P cc-pVDZ              selected for orbital group  3
 Library entry O      D cc-pVDZ              selected for orbital group  3
 Library entry AR     S cc-pVDZ              selected for orbital group  4
 Library entry AR     P cc-pVDZ              selected for orbital group  4
 Library entry AR     D cc-pVDZ              selected for orbital group  4

1PROGRAM * SEWARD (Integral evaluation for generally contracted gaussian basis sets)     Author: Roland Lindh, 1990

 Geometry written to block  1 of record 700

 Orientation using atomic masses  
 Molecule type: Asymmetric top
 Symmetry elements: Y
 Rotational constants:       2.5075065      2.4790806    218.6849245 GHz  (calculated with average atomic masses)

 Point group  Cs  



 ATOMIC COORDINATES

 NR  ATOM    CHARGE       X              Y              Z

   1  C       6.00    0.125994911    0.000000000    2.643245307
   2  N       7.00   -0.353287210    0.000000000    4.921502841
   3  O       8.00    0.583282802    0.000000000    0.469536886
   4  AR     18.00   -0.147619700    0.000000000   -2.708379436

 Bond lengths in Bohr (Angstrom)

 1-2  2.328125586  1-3  2.221288030  3-4  3.260884944
     (1.231991000)     (1.175455000)     (1.725585993)

 Bond angles

  1-3-4  155.16734396   2-1-3  180.00000000


 BASIS DATA

   Nr Sym  Nuc  Type         Exponents   Contraction coefficients

   1.1 A'    1  1s         6665.000000     0.000692   -0.000146    0.000000
   2.1 A'                  1000.000000     0.005329   -0.001154    0.000000
   3.1 A'                   228.000000     0.027077   -0.005725    0.000000
                             64.710000     0.101718   -0.023312    0.000000
                             21.060000     0.274740   -0.063955    0.000000
                              7.495000     0.448564   -0.149981    0.000000
                              2.797000     0.285074   -0.127262    0.000000
                              0.521500     0.015204    0.544529    0.000000
                              0.159600    -0.003191    0.580496    1.000000
   4.1 A'    1  2px           9.439000     0.038109
                              2.002000     0.209480
                              0.545600     0.508557
                              0.151700     0.468842
   5.1 A'    1  2pz           9.439000     0.038109
                              2.002000     0.209480
                              0.545600     0.508557
                              0.151700     0.468842
   6.1 A'    1  2px           9.439000     0.000000
                              2.002000     0.000000
                              0.545600     0.000000
                              0.151700     1.000000
   7.1 A'    1  2pz           9.439000     0.000000
                              2.002000     0.000000
                              0.545600     0.000000
                              0.151700     1.000000
   8.1 A'    1  3d0           0.550000     1.000000
   9.1 A'    1  3d1+          0.550000     1.000000
  10.1 A'    1  3d2+          0.550000     1.000000
  11.1 A'    2  1s         9046.000000     0.000700   -0.000153    0.000000
  12.1 A'                  1357.000000     0.005389   -0.001208    0.000000
  13.1 A'                   309.300000     0.027406   -0.005992    0.000000
                             87.730000     0.103207   -0.024544    0.000000
                             28.560000     0.278723   -0.067459    0.000000
                             10.210000     0.448540   -0.158078    0.000000
                              3.838000     0.278238   -0.121831    0.000000
                              0.746600     0.015440    0.549003    0.000000
                              0.224800    -0.002864    0.578815    1.000000
  14.1 A'    2  2px          13.550000     0.039919
                              2.917000     0.217169
                              0.797300     0.510319
                              0.218500     0.462214
  15.1 A'    2  2pz          13.550000     0.039919
                              2.917000     0.217169
                              0.797300     0.510319
                              0.218500     0.462214
  16.1 A'    2  2px          13.550000     0.000000
                              2.917000     0.000000
                              0.797300     0.000000
                              0.218500     1.000000
  17.1 A'    2  2pz          13.550000     0.000000
                              2.917000     0.000000
                              0.797300     0.000000
                              0.218500     1.000000
  18.1 A'    2  3d0           0.817000     1.000000
  19.1 A'    2  3d1+          0.817000     1.000000
  20.1 A'    2  3d2+          0.817000     1.000000
  21.1 A'    3  1s        11720.000000     0.000710   -0.000160    0.000000
  22.1 A'                  1759.000000     0.005470   -0.001263    0.000000
  23.1 A'                   400.800000     0.027837   -0.006267    0.000000
                            113.700000     0.104800   -0.025716    0.000000
                             37.030000     0.283062   -0.070924    0.000000
                             13.270000     0.448719   -0.165411    0.000000
                              5.025000     0.270952   -0.116955    0.000000
                              1.013000     0.015458    0.557368    0.000000
                              0.302300    -0.002585    0.572759    1.000000
  24.1 A'    3  2px          17.700000     0.043018
                              3.854000     0.228913
                              1.046000     0.508728
                              0.275300     0.460531
  25.1 A'    3  2pz          17.700000     0.043018
                              3.854000     0.228913
                              1.046000     0.508728
                              0.275300     0.460531
  26.1 A'    3  2px          17.700000     0.000000
                              3.854000     0.000000
                              1.046000     0.000000
                              0.275300     1.000000
  27.1 A'    3  2pz          17.700000     0.000000
                              3.854000     0.000000
                              1.046000     0.000000
                              0.275300     1.000000
  28.1 A'    3  3d0           1.185000     1.000000
  29.1 A'    3  3d1+          1.185000     1.000000
  30.1 A'    3  3d2+          1.185000     1.000000
  31.1 A'    4  1s       145700.000000     0.000237   -0.000067    0.000021    0.000000
  32.1 A'                 21840.000000     0.001835   -0.000519    0.000163    0.000000
  33.1 A'                  4972.000000     0.009529   -0.002748    0.000855    0.000000
  34.1 A'                  1408.000000     0.038628   -0.011101    0.003497    0.000000
                            459.700000     0.124081   -0.038482    0.012016    0.000000
                            165.900000     0.296471   -0.099760    0.032137    0.000000
                             64.690000     0.422068   -0.203088    0.065528    0.000000
                             26.440000     0.241711   -0.135608    0.049937    0.000000
                              7.628000     0.020051    0.507195   -0.229769    0.000000
                              2.996000    -0.003610    0.612898   -0.421006    0.000000
                              0.650400     0.000976    0.044297    0.642331    0.000000
                              0.233700    -0.000411   -0.008993    0.567540    1.000000
  35.1 A'    4  2px         453.700000     0.005706
                            106.800000     0.043046
                             33.730000     0.176591
                             12.130000     0.406863
                              4.594000     0.452549
                              1.678000     0.122801
                              0.590900    -0.004460
                              0.185200     0.002052
  36.1 A'    4  2pz         453.700000     0.005706
                            106.800000     0.043046
                             33.730000     0.176591
                             12.130000     0.406863
                              4.594000     0.452549
                              1.678000     0.122801
                              0.590900    -0.004460
                              0.185200     0.002052
  37.1 A'    4  2px         453.700000    -0.001607
                            106.800000    -0.012171
                             33.730000    -0.052079
                             12.130000    -0.123737
                              4.594000    -0.151619
                              1.678000     0.142425
                              0.590900     0.584501
                              0.185200     0.437540
  38.1 A'    4  2pz         453.700000    -0.001607
                            106.800000    -0.012171
                             33.730000    -0.052079
                             12.130000    -0.123737
                              4.594000    -0.151619
                              1.678000     0.142425
                              0.590900     0.584501
                              0.185200     0.437540
  39.1 A'    4  2px         453.700000     0.000000
                            106.800000     0.000000
                             33.730000     0.000000
                             12.130000     0.000000
                              4.594000     0.000000
                              1.678000     0.000000
                              0.590900     0.000000
                              0.185200     1.000000
  40.1 A'    4  2pz         453.700000     0.000000
                            106.800000     0.000000
                             33.730000     0.000000
                             12.130000     0.000000
                              4.594000     0.000000
                              1.678000     0.000000
                              0.590900     0.000000
                              0.185200     1.000000
  41.1 A'    4  3d0           0.738000     1.000000
  42.1 A'    4  3d1+          0.738000     1.000000
  43.1 A'    4  3d2+          0.738000     1.000000
   1.2 A"    1  2py           9.439000     0.038109    0.000000
   2.2 A"                     2.002000     0.209480    0.000000
                              0.545600     0.508557    0.000000
                              0.151700     0.468842    1.000000
   3.2 A"    1  3d2-          0.550000     1.000000
   4.2 A"    1  3d1-          0.550000     1.000000
   5.2 A"    2  2py          13.550000     0.039919    0.000000
   6.2 A"                     2.917000     0.217169    0.000000
                              0.797300     0.510319    0.000000
                              0.218500     0.462214    1.000000
   7.2 A"    2  3d2-          0.817000     1.000000
   8.2 A"    2  3d1-          0.817000     1.000000
   9.2 A"    3  2py          17.700000     0.043018    0.000000
  10.2 A"                     3.854000     0.228913    0.000000
                              1.046000     0.508728    0.000000
                              0.275300     0.460531    1.000000
  11.2 A"    3  3d2-          1.185000     1.000000
  12.2 A"    3  3d1-          1.185000     1.000000
  13.2 A"    4  2py         453.700000     0.005706   -0.001607    0.000000
  14.2 A"                   106.800000     0.043046   -0.012171    0.000000
  15.2 A"                    33.730000     0.176591   -0.052079    0.000000
                             12.130000     0.406863   -0.123737    0.000000
                              4.594000     0.452549   -0.151619    0.000000
                              1.678000     0.122801    0.142425    0.000000
                              0.590900    -0.004460    0.584501    0.000000
                              0.185200     0.002052    0.437540    1.000000
  16.2 A"    4  3d2-          0.738000     1.000000
  17.2 A"    4  3d1-          0.738000     1.000000

 NUCLEAR CHARGE:                   39
 NUMBER OF PRIMITIVE AOS:         123
 NUMBER OF SYMMETRY AOS:          119
 NUMBER OF CONTRACTIONS:           60   (  43A'  +  17A"  )
 NUMBER OF CORE ORBITALS:           8   (   7A'  +   1A"  )
 NUMBER OF VALENCE ORBITALS:       16   (  12A'  +   4A"  )


 NUCLEAR REPULSION ENERGY  132.78090087


 Eigenvalues of metric

         1 0.560E-02 0.117E-01 0.184E-01 0.291E-01 0.486E-01 0.719E-01 0.803E-01 0.982E-01
         2 0.957E-01 0.133E+00 0.179E+00 0.191E+00 0.266E+00 0.584E+00 0.800E+00 0.919E+00


 Contracted 2-electron integrals neglected if value below      1.0D-11
 AO integral compression algorithm  1   Integral accuracy      1.0D-11

     4.456 MB (compressed) written to integral file ( 50.3%)

     Node minimum: 4.456 MB, node maximum: 4.456 MB


 NUMBER OF SORTED TWO-ELECTRON INTEGRALS:     893926.     BUFFER LENGTH:  32768
 NUMBER OF SEGMENTS:   1  SEGMENT LENGTH:     893926      RECORD LENGTH: 524288

 Memory used in sort:       1.45 MW

 SORT1 READ     1116650. AND WROTE      850159. INTEGRALS IN      3 RECORDS. CPU TIME:     0.01 SEC, REAL TIME:     0.02 SEC
 SORT2 READ      850159. AND WROTE      893926. INTEGRALS IN     17 RECORDS. CPU TIME:     0.02 SEC, REAL TIME:     0.02 SEC

 FILE SIZES:   FILE 1:     6.2 MBYTE,  FILE 4:    12.6 MBYTE,   TOTAL:     18.8 MBYTE

 OPERATOR DM      FOR CENTER  0  COORDINATES:    0.000000    0.000000    0.000000


 **********************************************************************************************************************************
 DATASETS  * FILE   NREC   LENGTH (MB)   RECORD NAMES
              1      19        6.22       500      610      700      900      950      970     1000      129      960     1100   
                                          VAR    BASINP    GEOM    SYMINP    ZMAT    AOBASIS   BASIS     P2S    ABASIS      S 
                                         1400     1410     1200     1210     1080     1600     1650     1300     1700   
                                           T        V       H0       H01     AOSYM     SMH    MOLCAS    ERIS     OPER   

 PROGRAMS   *        TOTAL       INT
 CPU TIMES  *         0.27      0.23
 REAL TIME  *         0.30 SEC
 DISK USED  *        23.87 MB      
 GA USED    *         0.00 MB       (max)       0.00 MB       (current)
 **********************************************************************************************************************************

1PROGRAM * RHF-SCF (CLOSED SHELL)       Authors: W. Meyer, H.-J. Werner


 NUMBER OF ELECTRONS:      20+   20-
 CONVERGENCE THRESHOLDS:    1.00E-05 (Density)    1.00E-07 (Energy)
 MAX. NUMBER OF ITERATIONS:       60
 INTERPOLATION TYPE:            DIIS
 INTERPOLATION STEPS:              2 (START)      1 (STEP)
 LEVEL SHIFTS:                  0.00 (CLOSED)  0.00 (OPEN) 



 Orbital guess generated from atomic densities. Full valence occupancy:   19   5

 Molecular orbital dump at record        2100.2

 Initial alpha occupancy:  16   4
 Initial beta  occupancy:  16   4
 Wave function symmetry:    1

 ITERATION    DDIFF          GRAD             ENERGY        2-EL.EN.            DIPOLE MOMENTS         DIIS
    1      0.000D+00      0.000D+00      -693.71037027    811.367860    0.12901    0.00000   -3.58067    0
    2      0.000D+00      0.174D-01      -693.75124135    807.441075    0.03395    0.00000   -2.25682    1
    3      0.346D-01      0.116D-01      -693.78184695    807.778322    0.13078    0.00000   -2.78837    2
    4      0.141D-01      0.201D-02      -693.78287958    808.273353    0.10172    0.00000   -2.64782    3
    5      0.334D-02      0.860D-03      -693.78305913    808.104564    0.10896    0.00000   -2.66219    4
    6      0.144D-02      0.169D-03      -693.78307044    808.108027    0.10791    0.00000   -2.65392    5
    7      0.291D-03      0.560D-04      -693.78307200    808.106035    0.10781    0.00000   -2.65346    6
    8      0.144D-03      0.141D-04      -693.78307218    808.107460    0.10763    0.00000   -2.65334    7
    9      0.346D-04      0.522D-05      -693.78307221    808.106709    0.10762    0.00000   -2.65335    7
   10      0.153D-04      0.189D-05      -693.78307222    808.107017    0.10759    0.00000   -2.65333    7
   11      0.612D-05      0.635D-06      -693.78307222    808.106959    0.10759    0.00000   -2.65332    0

 Final occupancy:  16   4

 !RHF STATE 1.1 Energy               -693.783072217558
 Nuclear energy                       132.78090087
 One-electron energy                -1230.61745254
 Two-electron energy                  404.05347945
 Virial quotient                       -0.99818902
 !RHF STATE 1.1 Dipole moment           0.10759247     0.00000000    -2.65332197
 Dipole moment /Debye                   0.27345486     0.00000000    -6.74363004

 ELECTRON ORBITALS
 =================


   Orb  Occ    Energy  Couls-En    Coefficients

                                   1 1s      1 1s      1 1s      1 2px     1 2pz     1 2px     1 2pz     1 3d0     1 3d1+    1 3d2+ 
                                   2 1s      2 1s      2 1s      2 2px     2 2pz     2 2px     2 2pz     2 3d0     2 3d1+    2 3d2+ 
                                   3 1s      3 1s      3 1s      3 2px     3 2pz     3 2px     3 2pz     3 3d0     3 3d1+    3 3d2+ 
                                   4 1s      4 1s      4 1s      4 1s      4 2px     4 2pz     4 2px     4 2pz     4 2px     4 2pz  
                                   4 3d0     4 3d1+    4 3d2+ 

   1.1   2  -118.3765 -284.7398  0.000014  0.000050 -0.000011  0.000019 -0.000029  0.000023 -0.000161  0.000005 -0.000013  0.000004
                                -0.000017 -0.000062  0.000188  0.000000  0.000003  0.000014 -0.000037 -0.000002 -0.000004  0.000001
                                 0.000005  0.000022 -0.000072  0.000000  0.000006 -0.000012 -0.000148 -0.000008  0.000000  0.000001
                                 1.000008  0.000057  0.000112 -0.000198 -0.000004 -0.000015  0.000005  0.000032 -0.000024 -0.000121
                                -0.000026 -0.000011 -0.000001

   2.1   2   -20.3028  -61.9843  0.000165  0.000058  0.000035  0.000012 -0.000016  0.000736 -0.003460 -0.001200  0.000457 -0.000048
                                 0.000008  0.000056  0.002973  0.000126 -0.000609  0.000077 -0.000401  0.000138 -0.000046  0.000004
                                 1.001018  0.004939 -0.006317 -0.000592  0.002870  0.000554 -0.002811  0.000301 -0.000073  0.000010
                                 0.000005  0.000038  0.000079 -0.000232 -0.000001  0.000004 -0.000017 -0.000008 -0.000015 -0.000040
                                 0.000024 -0.000026 -0.000010

   3.1   2   -15.2798  -46.4024 -0.000061 -0.000956  0.003385  0.000074 -0.000477 -0.000860  0.004016 -0.001203  0.000483 -0.000056
                                 1.001042  0.004722 -0.007778  0.000725 -0.003653 -0.000834  0.004118  0.000545 -0.000204  0.000026
                                -0.000028 -0.000111  0.002180 -0.000122  0.000435  0.000111  0.000119  0.000087 -0.000030 -0.000001
                                -0.000018 -0.000131 -0.000299  0.000478  0.000002 -0.000017  0.000003 -0.000126 -0.000037  0.000282
                                -0.000012 -0.000035 -0.000006

   4.1   2   -12.0943  -55.4760  0.000223  0.000841 -0.000125  0.000364 -0.000537  0.000380 -0.003108  0.000158 -0.000259  0.000069
                                -0.000316 -0.001179  0.003552 -0.000020  0.000077  0.000292 -0.000698 -0.000040 -0.000059  0.000011
                                 0.000163  0.000541 -0.001837  0.000008  0.000106 -0.000122 -0.002411 -0.000290 -0.000056  0.000001
                                 0.000133  1.000943  0.002223 -0.003434 -0.000089 -0.000342  0.000058  0.000453 -0.000371 -0.001965
                                -0.000268 -0.000112 -0.000015

   5.1   2   -11.0859  -38.9853  1.001265  0.007943  0.000289  0.000467 -0.002731  0.000238  0.000042  0.002938 -0.001223  0.000146
                                -0.000965 -0.001381 -0.000147 -0.000090  0.000690 -0.000239  0.000801 -0.000156  0.000020  0.000000
                                -0.000343  0.000411 -0.004762  0.000102  0.000078  0.000373 -0.004230 -0.000190  0.000124 -0.000001
                                 0.000049  0.000321  0.000619 -0.001699  0.000002 -0.000058 -0.000005 -0.000368 -0.000409 -0.000505
                                -0.000190 -0.000213 -0.000041

   6.1   2    -9.3433  -52.0118  0.000096  0.000319 -0.000010 -0.000048  0.000026  0.000064  0.001018 -0.000150  0.000024 -0.000011
                                 0.000127  0.000467 -0.001255  0.000049 -0.000044 -0.000192  0.000262  0.000007  0.000008  0.000000
                                -0.000161 -0.000406  0.000906 -0.000011  0.000018 -0.000210 -0.000401  0.000339  0.000138  0.000022
                                 0.000024  0.000451 -0.000018 -0.000159  0.215795  0.976426  0.000027  0.000065 -0.000052 -0.000072
                                 0.000025  0.000008  0.000003

   7.1   2    -9.3408  -51.9782 -0.000037 -0.000136  0.000216  0.000065  0.000055 -0.000071 -0.000233  0.000028 -0.000048  0.000022
                                -0.000012 -0.000045  0.000106 -0.000013  0.000012  0.000058  0.000013 -0.000017 -0.000012  0.000001
                                 0.000018  0.000067 -0.000239  0.000041 -0.000023 -0.000182  0.000031  0.000011 -0.000021  0.000000
                                 0.000001  0.000017  0.000024 -0.000031  0.976461 -0.215798  0.000480 -0.000096 -0.000234  0.000031
                                -0.000036  0.000101  0.000023

   8.1   2    -1.2334  -18.0923 -0.014051  0.346347 -0.124080  0.043929 -0.225182 -0.016902  0.103139  0.036655 -0.012759  0.001344
                                -0.004660  0.028199 -0.007996  0.002865 -0.013925 -0.001701  0.000272  0.002696 -0.000614  0.000014
                                -0.015895  0.750778 -0.057548 -0.050348  0.090513  0.010449 -0.050087  0.017272 -0.002615  0.001039
                                 0.000318  0.000078  0.360840 -0.028349 -0.000662 -0.003424  0.017420  0.083897 -0.007106 -0.031340
                                 0.010102  0.003362  0.000352

   9.1   2    -1.0680  -18.6814  0.007204 -0.274545  0.098908 -0.033581  0.133012  0.013087 -0.058130 -0.023415  0.011030 -0.001443
                                 0.004392 -0.058822  0.007129 -0.005772  0.024356  0.001283 -0.003706 -0.002731  0.001442 -0.000179
                                 0.005954 -0.263387  0.013677  0.006266 -0.197044 -0.001411  0.060456 -0.005468  0.004859 -0.000144
                                -0.000880 -0.005962  0.883999  0.019924  0.000355  0.001879  0.006720  0.021735 -0.002957 -0.011304
                                 0.000733  0.000760  0.000185

  10.1   2    -0.8949  -14.2522 -0.013149  0.450921 -0.139297 -0.082888  0.384526  0.026463 -0.135526  0.019711 -0.007210  0.000697
                                -0.017628  0.708293 -0.106632  0.048309 -0.226719 -0.014881  0.074502  0.018478 -0.006875  0.000718
                                 0.000098 -0.184432  0.007604  0.000445  0.008366 -0.001144  0.025193 -0.000858 -0.000290 -0.000058
                                -0.000571 -0.003222  0.101943  0.023619  0.000308  0.001688 -0.009627 -0.036607  0.004268  0.011184
                                -0.003124 -0.001058 -0.000084

  11.1   2    -0.6074  -16.9837  0.001203  0.330093 -0.122303  0.102832 -0.323212 -0.040712  0.115106  0.021080 -0.013068  0.002135
                                -0.001585 -0.165899  0.029261  0.003022  0.011910  0.006632 -0.020223 -0.001223 -0.001340  0.000284
                                 0.000163 -0.220268 -0.100036 -0.019278  0.588349  0.007584 -0.067976  0.009096 -0.007893 -0.000034
                                -0.001498 -0.007355  0.205898  0.082558  0.002005  0.007279 -0.148413 -0.520855  0.012607  0.044875
                                -0.028461 -0.014103 -0.001855

  12.1   2    -0.4329  -15.8334  0.000192 -0.057644  0.026241  0.239377  0.091492 -0.035951 -0.049014 -0.009357 -0.021875  0.004039
                                -0.001376  0.026356  0.020988  0.093236  0.030688 -0.007372 -0.002742 -0.004866 -0.010614  0.002337
                                 0.000677  0.087588  0.014442  0.509577 -0.005131  0.008706 -0.006296  0.003829  0.008261 -0.005794
                                -0.000491 -0.003294 -0.001067  0.016804 -0.003029  0.001363  0.635318 -0.267909  0.008734  0.002092
                                -0.007387  0.015098  0.003461

  13.1   2    -0.3430  -15.3941  0.000379  0.140327 -0.067511 -0.328173 -0.108658  0.038481  0.040522  0.005856  0.017304 -0.003305
                                 0.001446 -0.088579 -0.024829 -0.162183 -0.113580  0.007655 -0.005162  0.010160  0.013861 -0.003208
                                -0.000115 -0.107353 -0.031266 -0.486443  0.038618 -0.030733  0.016008  0.000522 -0.018829  0.004323
                                 0.000455  0.003360  0.014787 -0.010803 -0.000182  0.000179  0.702935 -0.043490  0.029233 -0.006043
                                 0.002114 -0.009496 -0.001963

  14.1   2    -0.2959  -11.6566 -0.004206 -0.403591  0.205670 -0.030621 -0.324826 -0.032107  0.201773  0.015783 -0.002993  0.000199
                                -0.004662  0.473650  0.082760 -0.196018  0.602737 -0.008926  0.043588 -0.026736  0.015190 -0.002076
                                -0.004373  0.090314  0.064556 -0.103034  0.023101 -0.002664 -0.042714 -0.004301 -0.004144  0.000950
                                -0.000157 -0.001961 -0.028451 -0.009309  0.000037 -0.001238  0.026486 -0.206693 -0.003926 -0.019336
                                 0.005380 -0.001215 -0.000458

  15.1   2    -0.2025  -15.3519  0.000640  0.145154 -0.036732  0.319107 -0.233480 -0.063745  0.265020  0.011706  0.011941 -0.003155
                                 0.005012  0.062729 -0.085845  0.241854  0.230096  0.009278  0.032425 -0.012498 -0.012531  0.002993
                                 0.001506 -0.315643 -0.176381 -0.084004  0.392418 -0.015105  0.105608  0.020582  0.003146 -0.000265
                                 0.000706  0.010113  0.186350  0.064882  0.001890  0.005217  0.227567  0.715629  0.031798  0.132288
                                -0.044364 -0.022676 -0.003152

  16.1   2    -0.1150  -13.2246 -0.000827 -0.077333 -0.008681  0.202220  0.150033  0.046524 -0.081735  0.020235  0.061852 -0.013997
                                -0.001663  0.000158  0.040196  0.582402  0.071146  0.075308  0.001821 -0.005784 -0.022538  0.004695
                                -0.003462  0.129881  0.129409 -0.445659 -0.241258 -0.109398 -0.069648 -0.008375 -0.000745  0.001907
                                 0.000089 -0.003035 -0.112597 -0.063583  0.000503 -0.004216  0.035648 -0.382672 -0.013622 -0.104173
                                 0.042276 -0.000424 -0.002233

                                   1 2py     1 2py     1 3d2-    1 3d1-    2 2py     2 2py     2 3d2-    2 3d1-    3 2py     3 2py  
                                   3 3d2-    3 3d1-    4 2py     4 2py     4 2py     4 3d2-    4 3d1- 

   1.2   2    -9.3408  -51.9780  0.000079 -0.000083  0.000025 -0.000060 -0.000002  0.000044  0.000003 -0.000022  0.000043 -0.000218
                                 0.000001 -0.000030  1.000023  0.000489 -0.000240  0.000023  0.000107

   2.2   2    -0.4297  -15.8611  0.248724 -0.043340  0.004117 -0.023576  0.096599 -0.007956  0.002404 -0.011553  0.493612  0.007382
                                -0.005638  0.007659 -0.003270  0.712785  0.008616  0.003626  0.016750

   3.2   2    -0.3382  -15.2523 -0.389559  0.050373 -0.003485  0.019352 -0.211444  0.006744 -0.003925  0.018842 -0.515204 -0.031074
                                 0.004673 -0.020042 -0.000051  0.661473  0.029359 -0.002299 -0.011101

   4.2   2    -0.1300  -12.4248  0.313880  0.023991 -0.014347  0.065958  0.640583  0.073323  0.005613 -0.027474 -0.461840 -0.106264
                                 0.001718  0.000635  0.001741  0.153306  0.011954 -0.004542 -0.018729


 **********************************************************************************************************************************
 DATASETS  * FILE   NREC   LENGTH (MB)   RECORD NAMES
              1      19        6.22       500      610      700      900      950      970     1000      129      960     1100   
                                          VAR    BASINP    GEOM    SYMINP    ZMAT    AOBASIS   BASIS     P2S    ABASIS      S 
                                         1400     1410     1200     1210     1080     1600     1650     1300     1700   
                                           T        V       H0       H01     AOSYM     SMH    MOLCAS    ERIS     OPER   

              2       3        0.37       700     1000     2100   
                                         GEOM     BASIS     RHF  

 PROGRAMS   *        TOTAL        HF       INT
 CPU TIMES  *         0.34      0.07      0.23
 REAL TIME  *         0.37 SEC
 DISK USED  *        23.87 MB      
 GA USED    *         0.00 MB       (max)       0.00 MB       (current)
 **********************************************************************************************************************************
 SETTING BASIS          =    AUG-CC-PVTZ
 SETTING CHARGE         =         0.00000000                                  

 *** calculation for complex


 Recomputing integrals since basis changed


 Using spherical harmonics

 Library entry C      S aug-cc-pVTZ          selected for orbital group  1
 Library entry C      P aug-cc-pVTZ          selected for orbital group  1
 Library entry C      D aug-cc-pVTZ          selected for orbital group  1
 Library entry C      F aug-cc-pVTZ          selected for orbital group  1
 Library entry N      S aug-cc-pVTZ          selected for orbital group  2
 Library entry N      P aug-cc-pVTZ          selected for orbital group  2
 Library entry N      D aug-cc-pVTZ          selected for orbital group  2
 Library entry N      F aug-cc-pVTZ          selected for orbital group  2
 Library entry O      S aug-cc-pVTZ          selected for orbital group  3
 Library entry O      P aug-cc-pVTZ          selected for orbital group  3
 Library entry O      D aug-cc-pVTZ          selected for orbital group  3
 Library entry O      F aug-cc-pVTZ          selected for orbital group  3
 Library entry AR     S aug-cc-pVTZ          selected for orbital group  4
 Library entry AR     P aug-cc-pVTZ          selected for orbital group  4
 Library entry AR     D aug-cc-pVTZ          selected for orbital group  4
 Library entry AR     F aug-cc-pVTZ          selected for orbital group  4

1PROGRAM * SEWARD (Integral evaluation for generally contracted gaussian basis sets)     Author: Roland Lindh, 1990

 Geometry written to block  1 of record 700

 Orientation using atomic masses  
 Molecule type: Asymmetric top
 Symmetry elements: Y
 Rotational constants:       2.5075065      2.4790806    218.6849245 GHz  (calculated with average atomic masses)

 Point group  Cs  



 ATOMIC COORDINATES

 NR  ATOM    CHARGE       X              Y              Z

   1  C       6.00    0.125994911    0.000000000    2.643245307
   2  N       7.00   -0.353287210    0.000000000    4.921502841
   3  O       8.00    0.583282802    0.000000000    0.469536886
   4  AR     18.00   -0.147619700    0.000000000   -2.708379436

 Bond lengths in Bohr (Angstrom)

 1-2  2.328125586  1-3  2.221288030  3-4  3.260884944
     (1.231991000)     (1.175455000)     (1.725585993)

 Bond angles

  1-3-4  155.16734396   2-1-3  180.00000000


 BASIS DATA

   Nr Sym  Nuc  Type         Exponents   Contraction coefficients

   1.1 A'    1  1s         8236.000000     0.000531   -0.000113    0.000000    0.000000
   2.1 A'                  1235.000000     0.004108   -0.000878    0.000000    0.000000
   3.1 A'                   280.800000     0.021087   -0.004540    0.000000    0.000000
   4.1 A'                    79.270000     0.081853   -0.018133    0.000000    0.000000
                             25.590000     0.234817   -0.055760    0.000000    0.000000
                              8.997000     0.434401   -0.126895    0.000000    0.000000
                              3.319000     0.346129   -0.170352    0.000000    0.000000
                              0.905900     0.039378    0.140382    1.000000    0.000000
                              0.364300    -0.008983    0.598684    0.000000    0.000000
                              0.128500     0.002385    0.395389    0.000000    1.000000
   5.1 A'    1  1s            0.044020     1.000000
   6.1 A'    1  2px          18.710000     0.014031
                              4.133000     0.086866
                              1.200000     0.290216
                              0.382700     0.501008
                              0.120900     0.343406
   7.1 A'    1  2pz          18.710000     0.014031
                              4.133000     0.086866
                              1.200000     0.290216
                              0.382700     0.501008
                              0.120900     0.343406
   8.1 A'    1  2px          18.710000     0.000000
                              4.133000     0.000000
                              1.200000     0.000000
                              0.382700     1.000000
                              0.120900     0.000000
   9.1 A'    1  2pz          18.710000     0.000000
                              4.133000     0.000000
                              1.200000     0.000000
                              0.382700     1.000000
                              0.120900     0.000000
  10.1 A'    1  2px          18.710000     0.000000
                              4.133000     0.000000
                              1.200000     0.000000
                              0.382700     0.000000
                              0.120900     1.000000
  11.1 A'    1  2pz          18.710000     0.000000
                              4.133000     0.000000
                              1.200000     0.000000
                              0.382700     0.000000
                              0.120900     1.000000
  12.1 A'    1  2px           0.035690     1.000000
  13.1 A'    1  2pz           0.035690     1.000000
  14.1 A'    1  3d0           1.097000     1.000000
  15.1 A'    1  3d1+          1.097000     1.000000
  16.1 A'    1  3d2+          1.097000     1.000000
  17.1 A'    1  3d0           0.318000     1.000000
  18.1 A'    1  3d1+          0.318000     1.000000
  19.1 A'    1  3d2+          0.318000     1.000000
  20.1 A'    1  3d0           0.100000     1.000000
  21.1 A'    1  3d1+          0.100000     1.000000
  22.1 A'    1  3d2+          0.100000     1.000000
  23.1 A'    1  4f1+          0.761000     1.000000
  24.1 A'    1  4f0           0.761000     1.000000
  25.1 A'    1  4f3+          0.761000     1.000000
  26.1 A'    1  4f2+          0.761000     1.000000
  27.1 A'    1  4f1+          0.268000     1.000000
  28.1 A'    1  4f0           0.268000     1.000000
  29.1 A'    1  4f3+          0.268000     1.000000
  30.1 A'    1  4f2+          0.268000     1.000000
  31.1 A'    2  1s        11420.000000     0.000523   -0.000115    0.000000    0.000000
  32.1 A'                  1712.000000     0.004045   -0.000895    0.000000    0.000000
  33.1 A'                   389.300000     0.020775   -0.004624    0.000000    0.000000
  34.1 A'                   110.000000     0.080727   -0.018528    0.000000    0.000000
                             35.570000     0.233074   -0.057339    0.000000    0.000000
                             12.540000     0.433501   -0.132076    0.000000    0.000000
                              4.644000     0.347472   -0.172510    0.000000    0.000000
                              1.293000     0.041262    0.151814    1.000000    0.000000
                              0.511800    -0.008508    0.599944    0.000000    0.000000
                              0.178700     0.002384    0.387462    0.000000    1.000000
  35.1 A'    2  1s            0.057600     1.000000
  36.1 A'    2  2px          26.630000     0.014670
                              5.948000     0.091764
                              1.742000     0.298683
                              0.555000     0.498487
                              0.172500     0.337023
  37.1 A'    2  2pz          26.630000     0.014670
                              5.948000     0.091764
                              1.742000     0.298683
                              0.555000     0.498487
                              0.172500     0.337023
  38.1 A'    2  2px          26.630000     0.000000
                              5.948000     0.000000
                              1.742000     0.000000
                              0.555000     1.000000
                              0.172500     0.000000
  39.1 A'    2  2pz          26.630000     0.000000
                              5.948000     0.000000
                              1.742000     0.000000
                              0.555000     1.000000
                              0.172500     0.000000
  40.1 A'    2  2px          26.630000     0.000000
                              5.948000     0.000000
                              1.742000     0.000000
                              0.555000     0.000000
                              0.172500     1.000000
  41.1 A'    2  2pz          26.630000     0.000000
                              5.948000     0.000000
                              1.742000     0.000000
                              0.555000     0.000000
                              0.172500     1.000000
  42.1 A'    2  2px           0.049100     1.000000
  43.1 A'    2  2pz           0.049100     1.000000
  44.1 A'    2  3d0           1.654000     1.000000
  45.1 A'    2  3d1+          1.654000     1.000000
  46.1 A'    2  3d2+          1.654000     1.000000
  47.1 A'    2  3d0           0.469000     1.000000
  48.1 A'    2  3d1+          0.469000     1.000000
  49.1 A'    2  3d2+          0.469000     1.000000
  50.1 A'    2  3d0           0.151000     1.000000
  51.1 A'    2  3d1+          0.151000     1.000000
  52.1 A'    2  3d2+          0.151000     1.000000
  53.1 A'    2  4f1+          1.093000     1.000000
  54.1 A'    2  4f0           1.093000     1.000000
  55.1 A'    2  4f3+          1.093000     1.000000
  56.1 A'    2  4f2+          1.093000     1.000000
  57.1 A'    2  4f1+          0.364000     1.000000
  58.1 A'    2  4f0           0.364000     1.000000
  59.1 A'    2  4f3+          0.364000     1.000000
  60.1 A'    2  4f2+          0.364000     1.000000
  61.1 A'    3  1s        15330.000000     0.000508   -0.000115    0.000000    0.000000
  62.1 A'                  2299.000000     0.003929   -0.000895    0.000000    0.000000
  63.1 A'                   522.400000     0.020243   -0.004636    0.000000    0.000000
  64.1 A'                   147.300000     0.079181   -0.018724    0.000000    0.000000
                             47.550000     0.230687   -0.058463    0.000000    0.000000
                             16.760000     0.433118   -0.136463    0.000000    0.000000
                              6.207000     0.350260   -0.175740    0.000000    0.000000
                              1.752000     0.042728    0.160934    1.000000    0.000000
                              0.688200    -0.008154    0.603418    0.000000    0.000000
                              0.238400     0.002381    0.378765    0.000000    1.000000
  65.1 A'    3  1s            0.073760     1.000000
  66.1 A'    3  2px          34.460000     0.015928
                              7.749000     0.099740
                              2.280000     0.310492
                              0.715600     0.491026
                              0.214000     0.336337
  67.1 A'    3  2pz          34.460000     0.015928
                              7.749000     0.099740
                              2.280000     0.310492
                              0.715600     0.491026
                              0.214000     0.336337
  68.1 A'    3  2px          34.460000     0.000000
                              7.749000     0.000000
                              2.280000     0.000000
                              0.715600     1.000000
                              0.214000     0.000000
  69.1 A'    3  2pz          34.460000     0.000000
                              7.749000     0.000000
                              2.280000     0.000000
                              0.715600     1.000000
                              0.214000     0.000000
  70.1 A'    3  2px          34.460000     0.000000
                              7.749000     0.000000
                              2.280000     0.000000
                              0.715600     0.000000
                              0.214000     1.000000
  71.1 A'    3  2pz          34.460000     0.000000
                              7.749000     0.000000
                              2.280000     0.000000
                              0.715600     0.000000
                              0.214000     1.000000
  72.1 A'    3  2px           0.059740     1.000000
  73.1 A'    3  2pz           0.059740     1.000000
  74.1 A'    3  3d0           2.314000     1.000000
  75.1 A'    3  3d1+          2.314000     1.000000
  76.1 A'    3  3d2+          2.314000     1.000000
  77.1 A'    3  3d0           0.645000     1.000000
  78.1 A'    3  3d1+          0.645000     1.000000
  79.1 A'    3  3d2+          0.645000     1.000000
  80.1 A'    3  3d0           0.214000     1.000000
  81.1 A'    3  3d1+          0.214000     1.000000
  82.1 A'    3  3d2+          0.214000     1.000000
  83.1 A'    3  4f1+          1.428000     1.000000
  84.1 A'    3  4f0           1.428000     1.000000
  85.1 A'    3  4f3+          1.428000     1.000000
  86.1 A'    3  4f2+          1.428000     1.000000
  87.1 A'    3  4f1+          0.500000     1.000000
  88.1 A'    3  4f0           0.500000     1.000000
  89.1 A'    3  4f3+          0.500000     1.000000
  90.1 A'    3  4f2+          0.500000     1.000000
  91.1 A'    4  1s       545000.000000     0.000046   -0.000013    0.000004    0.000000    0.000000
  92.1 A'                 81640.000000     0.000354   -0.000100    0.000031    0.000000    0.000000
  93.1 A'                 18580.000000     0.001858   -0.000530    0.000166    0.000000    0.000000
  94.1 A'                  5261.000000     0.007769   -0.002214    0.000692    0.000000    0.000000
  95.1 A'                  1717.000000     0.027423   -0.007968    0.002498    0.000000    0.000000
                            619.900000     0.082384   -0.024580    0.007711    0.000000    0.000000
                            241.600000     0.201230   -0.065780    0.020871    0.000000    0.000000
                             99.790000     0.356781   -0.137942    0.044396    0.000000    0.000000
                             43.150000     0.349563   -0.201630    0.068022    0.000000    0.000000
                             19.140000     0.118266   -0.041283    0.014135    0.000000    0.000000
                              7.488000     0.005602    0.484680   -0.207489    0.000000    0.000000
                              3.205000     0.000483    0.579224   -0.425045    0.000000    0.000000
                              1.196000    -0.000148    0.087908    0.070486    1.000000    0.000000
                              0.520400     0.000029   -0.007276    0.733627    0.000000    0.000000
                              0.195400    -0.000023    0.002329    0.396005    0.000000    1.000000
  96.1 A'    4  1s            0.068500     1.000000
  97.1 A'    4  2px         761.800000     0.002370
                            180.200000     0.019020
                             57.500000     0.088081
                             21.240000     0.256377
                              8.388000     0.438711
                              3.416000     0.347569
                              1.206000     0.056674
                              0.452300    -0.005239
                              0.154500     0.001644
  98.1 A'    4  2pz         761.800000     0.002370
                            180.200000     0.019020
                             57.500000     0.088081
                             21.240000     0.256377
                              8.388000     0.438711
                              3.416000     0.347569
                              1.206000     0.056674
                              0.452300    -0.005239
                              0.154500     0.001644
  99.1 A'    4  2px         761.800000    -0.000667
                            180.200000    -0.005327
                             57.500000    -0.025549
                             21.240000    -0.075720
                              8.388000    -0.141133
                              3.416000    -0.093277
                              1.206000     0.282872
                              0.452300     0.562450
                              0.154500     0.325059
 100.1 A'    4  2pz         761.800000    -0.000667
                            180.200000    -0.005327
                             57.500000    -0.025549
                             21.240000    -0.075720
                              8.388000    -0.141133
                              3.416000    -0.093277
                              1.206000     0.282872
                              0.452300     0.562450
                              0.154500     0.325059
 101.1 A'    4  2px         761.800000     0.000000
                            180.200000     0.000000
                             57.500000     0.000000
                             21.240000     0.000000
                              8.388000     0.000000
                              3.416000     0.000000
                              1.206000     1.000000
                              0.452300     0.000000
                              0.154500     0.000000
 102.1 A'    4  2pz         761.800000     0.000000
                            180.200000     0.000000
                             57.500000     0.000000
                             21.240000     0.000000
                              8.388000     0.000000
                              3.416000     0.000000
                              1.206000     1.000000
                              0.452300     0.000000
                              0.154500     0.000000
 103.1 A'    4  2px         761.800000     0.000000
                            180.200000     0.000000
                             57.500000     0.000000
                             21.240000     0.000000
                              8.388000     0.000000
                              3.416000     0.000000
                              1.206000     0.000000
                              0.452300     0.000000
                              0.154500     1.000000
 104.1 A'    4  2pz         761.800000     0.000000
                            180.200000     0.000000
                             57.500000     0.000000
                             21.240000     0.000000
                              8.388000     0.000000
                              3.416000     0.000000
                              1.206000     0.000000
                              0.452300     0.000000
                              0.154500     1.000000
 105.1 A'    4  2px           0.048700     1.000000
 106.1 A'    4  2pz           0.048700     1.000000
 107.1 A'    4  3d0           0.410000     1.000000
 108.1 A'    4  3d1+          0.410000     1.000000
 109.1 A'    4  3d2+          0.410000     1.000000
 110.1 A'    4  3d0           1.254000     1.000000
 111.1 A'    4  3d1+          1.254000     1.000000
 112.1 A'    4  3d2+          1.254000     1.000000
 113.1 A'    4  3d0           0.169000     1.000000
 114.1 A'    4  3d1+          0.169000     1.000000
 115.1 A'    4  3d2+          0.169000     1.000000
 116.1 A'    4  4f1+          0.890000     1.000000
 117.1 A'    4  4f0           0.890000     1.000000
 118.1 A'    4  4f3+          0.890000     1.000000
 119.1 A'    4  4f2+          0.890000     1.000000
 120.1 A'    4  4f1+          0.406000     1.000000
 121.1 A'    4  4f0           0.406000     1.000000
 122.1 A'    4  4f3+          0.406000     1.000000
 123.1 A'    4  4f2+          0.406000     1.000000
   1.2 A"    1  2py          18.710000     0.014031    0.000000    0.000000
   2.2 A"                     4.133000     0.086866    0.000000    0.000000
   3.2 A"                     1.200000     0.290216    0.000000    0.000000
                              0.382700     0.501008    1.000000    0.000000
                              0.120900     0.343406    0.000000    1.000000
   4.2 A"    1  2py           0.035690     1.000000
   5.2 A"    1  3d2-          1.097000     1.000000
   6.2 A"    1  3d1-          1.097000     1.000000
   7.2 A"    1  3d2-          0.318000     1.000000
   8.2 A"    1  3d1-          0.318000     1.000000
   9.2 A"    1  3d2-          0.100000     1.000000
  10.2 A"    1  3d1-          0.100000     1.000000
  11.2 A"    1  4f1-          0.761000     1.000000
  12.2 A"    1  4f2-          0.761000     1.000000
  13.2 A"    1  4f3-          0.761000     1.000000
  14.2 A"    1  4f1-          0.268000     1.000000
  15.2 A"    1  4f2-          0.268000     1.000000
  16.2 A"    1  4f3-          0.268000     1.000000
  17.2 A"    2  2py          26.630000     0.014670    0.000000    0.000000
  18.2 A"                     5.948000     0.091764    0.000000    0.000000
  19.2 A"                     1.742000     0.298683    0.000000    0.000000
                              0.555000     0.498487    1.000000    0.000000
                              0.172500     0.337023    0.000000    1.000000
  20.2 A"    2  2py           0.049100     1.000000
  21.2 A"    2  3d2-          1.654000     1.000000
  22.2 A"    2  3d1-          1.654000     1.000000
  23.2 A"    2  3d2-          0.469000     1.000000
  24.2 A"    2  3d1-          0.469000     1.000000
  25.2 A"    2  3d2-          0.151000     1.000000
  26.2 A"    2  3d1-          0.151000     1.000000
  27.2 A"    2  4f1-          1.093000     1.000000
  28.2 A"    2  4f2-          1.093000     1.000000
  29.2 A"    2  4f3-          1.093000     1.000000
  30.2 A"    2  4f1-          0.364000     1.000000
  31.2 A"    2  4f2-          0.364000     1.000000
  32.2 A"    2  4f3-          0.364000     1.000000
  33.2 A"    3  2py          34.460000     0.015928    0.000000    0.000000
  34.2 A"                     7.749000     0.099740    0.000000    0.000000
  35.2 A"                     2.280000     0.310492    0.000000    0.000000
                              0.715600     0.491026    1.000000    0.000000
                              0.214000     0.336337    0.000000    1.000000
  36.2 A"    3  2py           0.059740     1.000000
  37.2 A"    3  3d2-          2.314000     1.000000
  38.2 A"    3  3d1-          2.314000     1.000000
  39.2 A"    3  3d2-          0.645000     1.000000
  40.2 A"    3  3d1-          0.645000     1.000000
  41.2 A"    3  3d2-          0.214000     1.000000
  42.2 A"    3  3d1-          0.214000     1.000000
  43.2 A"    3  4f1-          1.428000     1.000000
  44.2 A"    3  4f2-          1.428000     1.000000
  45.2 A"    3  4f3-          1.428000     1.000000
  46.2 A"    3  4f1-          0.500000     1.000000
  47.2 A"    3  4f2-          0.500000     1.000000
  48.2 A"    3  4f3-          0.500000     1.000000
  49.2 A"    4  2py         761.800000     0.002370   -0.000667    0.000000    0.000000
  50.2 A"                   180.200000     0.019020   -0.005327    0.000000    0.000000
  51.2 A"                    57.500000     0.088081   -0.025549    0.000000    0.000000
  52.2 A"                    21.240000     0.256377   -0.075720    0.000000    0.000000
                              8.388000     0.438711   -0.141133    0.000000    0.000000
                              3.416000     0.347569   -0.093277    0.000000    0.000000
                              1.206000     0.056674    0.282872    1.000000    0.000000
                              0.452300    -0.005239    0.562450    0.000000    0.000000
                              0.154500     0.001644    0.325059    0.000000    1.000000
  53.2 A"    4  2py           0.048700     1.000000
  54.2 A"    4  3d2-          0.410000     1.000000
  55.2 A"    4  3d1-          0.410000     1.000000
  56.2 A"    4  3d2-          1.254000     1.000000
  57.2 A"    4  3d1-          1.254000     1.000000
  58.2 A"    4  3d2-          0.169000     1.000000
  59.2 A"    4  3d1-          0.169000     1.000000
  60.2 A"    4  4f1-          0.890000     1.000000
  61.2 A"    4  4f2-          0.890000     1.000000
  62.2 A"    4  4f3-          0.890000     1.000000
  63.2 A"    4  4f1-          0.406000     1.000000
  64.2 A"    4  4f2-          0.406000     1.000000
  65.2 A"    4  4f3-          0.406000     1.000000

 NUCLEAR CHARGE:                   39
 NUMBER OF PRIMITIVE AOS:         285
 NUMBER OF SYMMETRY AOS:          249
 NUMBER OF CONTRACTIONS:          188   ( 123A'  +  65A"  )
 NUMBER OF CORE ORBITALS:           8   (   7A'  +   1A"  )
 NUMBER OF VALENCE ORBITALS:       16   (  12A'  +   4A"  )


 NUCLEAR REPULSION ENERGY  132.78090087


 Eigenvalues of metric

         1 0.190E-03 0.252E-03 0.306E-03 0.691E-03 0.986E-03 0.105E-02 0.139E-02 0.210E-02
         2 0.231E-02 0.266E-02 0.855E-02 0.127E-01 0.192E-01 0.197E-01 0.267E-01 0.311E-01


 Contracted 2-electron integrals neglected if value below      1.0D-11
 AO integral compression algorithm  1   Integral accuracy      1.0D-11

     360.972 MB (compressed) written to integral file ( 46.4%)

     Node minimum: 360.972 MB, node maximum: 360.972 MB


 NUMBER OF SORTED TWO-ELECTRON INTEGRALS:   80456646.     BUFFER LENGTH:  32768
 NUMBER OF SEGMENTS:   6  SEGMENT LENGTH:   15997996      RECORD LENGTH: 524288

 Memory used in sort:      16.56 MW

 SORT1 READ    97245779. AND WROTE    75540293. INTEGRALS IN    220 RECORDS. CPU TIME:     0.99 SEC, REAL TIME:     1.48 SEC
 SORT2 READ    75540293. AND WROTE    80456646. INTEGRALS IN   1377 RECORDS. CPU TIME:     1.09 SEC, REAL TIME:     1.52 SEC

 FILE SIZES:   FILE 1:   310.2 MBYTE,  FILE 4:   922.8 MBYTE,   TOTAL:   1233.0 MBYTE

 OPERATOR DM      FOR CENTER  0  COORDINATES:    0.000000    0.000000    0.000000


 **********************************************************************************************************************************
 DATASETS  * FILE   NREC   LENGTH (MB)   RECORD NAMES
              1      19      310.45       500      610      700      900      950      970     1001      129      960     1100   
                                          VAR    BASINP    GEOM    SYMINP    ZMAT    AOBASIS   BASIS     P2S    ABASIS      S 
                                         1400     1410     1200     1210     1080     1600     1650     1300     1700   
                                           T        V       H0       H01     AOSYM     SMH    MOLCAS    ERIS     OPER   

              2       4        0.46       700     1000     2100     1001   
                                         GEOM     BASIS     RHF     BASIS   

 PROGRAMS   *        TOTAL       INT        HF       INT
 CPU TIMES  *         8.11      7.77      0.07      0.23
 REAL TIME  *        14.46 SEC
 DISK USED  *         1.59 GB      
 GA USED    *         0.00 MB       (max)       0.00 MB       (current)
 **********************************************************************************************************************************

1PROGRAM * RHF-SCF (OPEN SHELL)       Authors: W. Meyer, H.-J. Werner


 NUMBER OF ELECTRONS:      20+   19-    SPACE SYMMETRY=1    SPIN SYMMETRY=Doublet 
 CONVERGENCE THRESHOLDS:    1.00E-05 (Density)    1.00E-07 (Energy)
 MAX. NUMBER OF ITERATIONS:       60
 INTERPOLATION TYPE:            DIIS
 INTERPOLATION STEPS:              2 (START)      1 (STEP)
 LEVEL SHIFTS:                 -0.30 (CLOSED)  0.00 (OPEN) 


 Singly occupied orbitals:     16.1
 Molecular orbitals read from record     2100.2  Type=RHF/CANONICAL (state 1.1)
 
 Present basis size:     123  65
 Previous basis size:     43  17
 Previous occupation:     16   4
 Previous closed-shells:  16   4
 Previous core-orbitals:   7   1
 Present occupation:      16   4
 Present closed-shells:   16   4
 Present core-orbitals:    7   1
 Wavefunction symmetry:    1   Singlet 

 Orbital overlap <old|new>:  < 1.1| 1.1> = 1.000000   < 2.1| 2.1> = 0.999999   < 3.1| 3.1> = 0.999999   < 4.1| 4.1> = 0.999995
                             < 5.1| 5.1> = 0.999999   < 6.1| 6.1> = 0.999995   < 7.1| 7.1> = 0.999994   < 1.2| 1.2> = 0.999994
                             < 8.1| 8.1> = 0.999968   < 9.1| 9.1> = 0.999977   <10.1|10.1> = 0.999958   <11.1|11.1> = 0.999948
                             <12.1|12.1> = 0.999930   <13.1|13.1> = 0.999916   <14.1|14.1> = 0.999932   <15.1|15.1> = 0.999919
                             <16.1|16.1> = 0.999875   < 2.2| 2.2> = 0.999927   < 3.2| 3.2> = 0.999905   < 4.2| 4.2> = 0.999873

 Molecular orbital dump at record        2101.2

 ITERATION    DDIFF          GRAD             ENERGY        2-EL.EN.            DIPOLE MOMENTS         DIIS
    1      0.000D+00      0.000D+00      -693.70324387    782.135431   -0.01022    0.00000   -0.20617    0
    2      0.000D+00      0.651D-02      -693.76588169    786.973171    0.05444    0.00000   -0.53215    1
    3      0.122D-01      0.127D-02      -693.77149472    786.688321    0.03924    0.00000   -0.24367    2
    4      0.309D-02      0.569D-03      -693.77355138    786.641782    0.05033    0.00000   -0.26389    3
    5      0.120D-02      0.272D-03      -693.77516959    786.809608    0.04785    0.00000   -0.15950    4
    6      0.883D-03      0.246D-03      -693.77608275    786.791053    0.05247    0.00000   -0.13337    5
    7      0.428D-03      0.179D-03      -693.77737252    786.873524    0.05625    0.00000   -0.05858    6
    8      0.688D-03      0.145D-03      -693.77797546    786.886622    0.06212    0.00000   -0.01969    7
    9      0.592D-03      0.559D-04      -693.77804864    786.905067    0.06391    0.00000   -0.00786    8
   10      0.233D-03      0.251D-04      -693.77806867    786.915570    0.06483    0.00000    0.00808    9
   11      0.169D-03      0.128D-04      -693.77806895    786.902244    0.06489    0.00000   -0.00066    9
   12      0.630D-04      0.933D-05      -693.77807073    786.909032    0.06503    0.00000    0.00445    9
   13      0.384D-04      0.283D-05      -693.77807087    786.909038    0.06519    0.00000    0.00546    9
   14      0.152D-04      0.110D-05      -693.77807088    786.908815    0.06524    0.00000    0.00530    9
   15      0.454D-05      0.752D-06      -693.77807089    786.909308    0.06525    0.00000    0.00554    0

 Final alpha occupancy:  16   4
 Final beta  occupancy:  15   4

 !RHF STATE 1.1 Energy               -693.778070886837
 Nuclear energy                       132.78090087
 One-electron energy                -1220.01362570
 Two-electron energy                  393.45465394
 Virial quotient                       -0.99863075
 !RHF STATE 1.1 Dipole moment           0.06524619     0.00000000     0.00553779
 Dipole moment /Debye                   0.16582841     0.00000000     0.01407474

 ELECTRON ORBITALS
 =================


   Orb  Occ    Energy  Couls-En    Coefficients

                                   1 1s      1 1s      1 1s      1 1s      1 1s      1 2px     1 2pz     1 2px     1 2pz     1 2px  
                                   1 2pz     1 2px     1 2pz     1 3d0     1 3d1+    1 3d2+    1 3d0     1 3d1+    1 3d2+    1 3d0  
                                   1 3d1+    1 3d2+    1 4f1+    1 4f0     1 4f3+    1 4f2+    1 4f1+    1 4f0     1 4f3+    1 4f2+ 
                                   2 1s      2 1s      2 1s      2 1s      2 1s      2 2px     2 2pz     2 2px     2 2pz     2 2px  
                                   2 2pz     2 2px     2 2pz     2 3d0     2 3d1+    2 3d2+    2 3d0     2 3d1+    2 3d2+    2 3d0  
                                   2 3d1+    2 3d2+    2 4f1+    2 4f0     2 4f3+    2 4f2+    2 4f1+    2 4f0     2 4f3+    2 4f2+ 
                                   3 1s      3 1s      3 1s      3 1s      3 1s      3 2px     3 2pz     3 2px     3 2pz     3 2px  
                                   3 2pz     3 2px     3 2pz     3 3d0     3 3d1+    3 3d2+    3 3d0     3 3d1+    3 3d2+    3 3d0  
                                   3 3d1+    3 3d2+    3 4f1+    3 4f0     3 4f3+    3 4f2+    3 4f1+    3 4f0     3 4f3+    3 4f2+ 
                                   4 1s      4 1s      4 1s      4 1s      4 1s      4 1s      4 2px     4 2pz     4 2px     4 2pz  
                                   4 2px     4 2pz     4 2px     4 2pz     4 2px     4 2pz     4 3d0     4 3d1+    4 3d2+    4 3d0  
                                   4 3d1+    4 3d2+    4 3d0     4 3d1+    4 3d2+    4 4f1+    4 4f0     4 4f3+    4 4f2+    4 4f1+ 
                                   4 4f0     4 4f3+    4 4f2+ 

   1.1   2  -118.5779 -284.9423  0.000003  0.000011  0.000000  0.000009  0.000000  0.000000 -0.000001  0.000004 -0.000017  0.000001
                                 0.000008  0.000001  0.000005  0.000000  0.000000  0.000000 -0.000003  0.000000 -0.000001  0.000019
                                -0.000002  0.000000  0.000001 -0.000001  0.000000  0.000000 -0.000002  0.000008  0.000000  0.000001
                                -0.000001 -0.000004  0.000000 -0.000008 -0.000005  0.000000  0.000001  0.000000 -0.000003 -0.000002
                                -0.000017 -0.000002 -0.000004  0.000000  0.000000  0.000000  0.000003 -0.000001  0.000000  0.000006
                                -0.000001  0.000000  0.000000  0.000000  0.000000  0.000000  0.000000 -0.000001  0.000000  0.000000
                                -0.000001 -0.000001  0.000000  0.000025  0.000040  0.000001 -0.000001 -0.000001  0.000002 -0.000010
                                -0.000082 -0.000005  0.000009  0.000000  0.000000  0.000000  0.000000  0.000001  0.000000  0.000010
                                 0.000014  0.000002  0.000000  0.000000  0.000000  0.000000 -0.000001 -0.000004  0.000000  0.000000
                                 1.000007  0.000044  0.000060 -0.000025 -0.000116 -0.000011 -0.000010 -0.000026 -0.000011 -0.000032
                                 0.000009  0.000024 -0.000004 -0.000045  0.000001 -0.000002 -0.000009 -0.000004 -0.000001  0.000001
                                 0.000000  0.000000 -0.000020 -0.000006  0.000000  0.000001  0.000002  0.000000  0.000000 -0.000003
                                -0.000006  0.000000  0.000000

   2.1   2   -20.6604  -62.3422  0.000685  0.002578 -0.000577  0.001810  0.000125  0.000250 -0.000995  0.000026 -0.002045 -0.000002
                                -0.002319 -0.000106 -0.000019  0.000538 -0.000163  0.000006  0.002192 -0.000467  0.000010  0.000191
                                 0.000088 -0.000042 -0.000033 -0.000014 -0.000010  0.000034  0.000457 -0.000994  0.000003 -0.000057
                                -0.000035 -0.000115  0.000076  0.000253  0.000417  0.000010 -0.000042 -0.000073  0.000310 -0.000049
                                 0.000270  0.000061 -0.000184 -0.000073  0.000021  0.000000  0.000013  0.000002 -0.000011 -0.000023
                                -0.000023  0.000020 -0.000036  0.000079 -0.000002  0.000010  0.000072 -0.000114  0.000002 -0.000015
                                 0.998203 -0.004264  0.001882 -0.002884 -0.002540 -0.001877  0.005483  0.001676 -0.005502  0.001542
                                -0.000136  0.000435  0.000122  0.000317 -0.000085 -0.000042 -0.001173  0.000324 -0.000114  0.000595
                                -0.000285 -0.000060  0.000011 -0.000094  0.000000 -0.000011  0.000356  0.000159  0.000003  0.000011
                                -0.000015 -0.000130 -0.000322 -0.000146  0.001395  0.001010  0.000046  0.000371  0.000142  0.001139
                                -0.000077 -0.000602 -0.000039  0.000654  0.000009  0.000175  0.000575  0.000126  0.000003 -0.000036
                                 0.000001  0.000003  0.000260 -0.000011 -0.000048  0.000062  0.000086  0.000006  0.000024  0.000052
                                 0.000206 -0.000013 -0.000037

   3.1   2   -15.6459  -46.7688  0.000758  0.002599 -0.000030 -0.003179 -0.000521 -0.000342  0.001554 -0.000021 -0.000700  0.000765
                                -0.005511 -0.000118  0.000133  0.000273 -0.000086 -0.000021  0.000813 -0.000327  0.000060 -0.001023
                                 0.000273 -0.000040  0.000344 -0.000709 -0.000001 -0.000042  0.000013 -0.000393 -0.000005  0.000035
                                 0.998954 -0.002249  0.001308  0.005994  0.000866  0.001323 -0.007294 -0.000864  0.005219 -0.000029
                                 0.002009  0.000104 -0.000168  0.000502 -0.000195 -0.000055 -0.000720  0.000140 -0.000143 -0.000413
                                 0.000050  0.000031  0.000050 -0.000059 -0.000005  0.000012 -0.000155  0.000345 -0.000006  0.000037
                                -0.000534 -0.001672  0.000348 -0.001657 -0.002925 -0.000028  0.000071  0.000235 -0.001080  0.000514
                                 0.002174  0.000462 -0.000322 -0.000066  0.000025 -0.000001 -0.000299  0.000154 -0.000023  0.000329
                                -0.000683 -0.000024  0.000028 -0.000089  0.000001 -0.000019  0.000149  0.000114 -0.000001  0.000040
                                -0.000050 -0.000316 -0.000563  0.000069  0.001784  0.001388 -0.000004  0.000178 -0.000006  0.000554
                                 0.000012 -0.000262  0.000067  0.001308  0.000001  0.000284  0.000275 -0.000017 -0.000005 -0.000020
                                 0.000019  0.000003  0.000437  0.000069 -0.000065  0.000007  0.000005  0.000007  0.000023  0.000000
                                 0.000105 -0.000017 -0.000059

   4.1   2   -12.2959  -55.6772 -0.000070 -0.000223 -0.000033  0.000051  0.000374  0.000045  0.000052 -0.000320  0.000386  0.000103
                                -0.000580 -0.000007 -0.000316  0.000012  0.000014 -0.000005  0.000098  0.000166 -0.000028 -0.000661
                                 0.000170 -0.000015 -0.000046 -0.000012 -0.000003  0.000015  0.000124 -0.000127 -0.000002  0.000008
                                 0.000013  0.000047  0.000021  0.000531  0.000426  0.000031 -0.000003 -0.000061  0.000032 -0.000114
                                 0.000466  0.000075  0.000119  0.000004 -0.000007  0.000005 -0.000089  0.000042 -0.000023 -0.000230
                                 0.000077 -0.000014  0.000006  0.000006  0.000001 -0.000003 -0.000005  0.000038 -0.000005  0.000011
                                -0.000022 -0.000090 -0.000039 -0.000116 -0.000738 -0.000014  0.000056 -0.000022 -0.000151  0.000309
                                 0.001544  0.000124 -0.001142 -0.000002 -0.000001  0.000001  0.000163  0.000087 -0.000002  0.000039
                                -0.000105 -0.000023 -0.000021 -0.000040  0.000000 -0.000005  0.000056  0.000124 -0.000001 -0.000015
                                -0.000239  0.998643 -0.001856  0.000916  0.003251 -0.001457 -0.000100  0.000241  0.000098  0.000068
                                -0.000047  0.000095  0.000072  0.000972 -0.000132 -0.000245 -0.000038  0.000030  0.000005  0.000170
                                 0.000034  0.000009  0.000437  0.000089 -0.000009 -0.000001 -0.000007  0.000002  0.000004 -0.000003
                                 0.000019 -0.000003 -0.000008

   5.1   2   -11.4222  -39.3211  1.000356  0.005776  0.003401 -0.002708  0.001293 -0.000771 -0.002466  0.001080  0.003487  0.001693
                                 0.000435  0.000243  0.000056  0.001736 -0.000730  0.000117 -0.002691  0.000635 -0.000072 -0.000881
                                 0.000271  0.000024 -0.000005  0.000254  0.000018 -0.000068  0.000186  0.000316  0.000006 -0.000080
                                -0.000097  0.001579  0.000297 -0.000505 -0.000819  0.000265 -0.001144 -0.000337  0.000771 -0.001095
                                 0.002076 -0.000212  0.000275  0.000024 -0.000011 -0.000015 -0.001227  0.000666 -0.000106 -0.000665
                                 0.000539 -0.000116 -0.000095  0.000126 -0.000005  0.000028 -0.000461  0.000648 -0.000010  0.000102
                                 0.000231  0.002333 -0.000051  0.002838  0.000055 -0.000162  0.001082 -0.000277  0.000552 -0.001098
                                -0.004573 -0.000384 -0.002515  0.000143 -0.000052  0.000009 -0.000695  0.000133  0.000026 -0.000304
                                 0.000023  0.000125 -0.000064  0.000193 -0.000001  0.000008  0.000298 -0.001401 -0.000005 -0.000004
                                 0.000027  0.000188  0.000366  0.000093 -0.002278 -0.003109 -0.000222 -0.000377 -0.000686 -0.001211
                                 0.000333  0.000503 -0.000268 -0.001780 -0.000164 -0.000398 -0.000396 -0.000459 -0.000123 -0.000017
                                 0.000022  0.000017 -0.000653 -0.000195 -0.000032 -0.000073  0.000016  0.000004 -0.000010 -0.000165
                                -0.000107 -0.000032 -0.000120

   6.1   2    -9.5453  -52.2121  0.000173  0.000592  0.000295  0.003032 -0.000033  0.000335 -0.000042 -0.000446 -0.001050 -0.000115
                                -0.001551 -0.000355  0.000038 -0.000099 -0.000018  0.000076 -0.000315  0.000764 -0.000309  0.001742
                                -0.000315 -0.000146 -0.000097 -0.000036  0.000029 -0.000039  0.000171  0.001284 -0.000093  0.000261
                                -0.000194 -0.000638 -0.000004 -0.000075 -0.000275  0.000116  0.000114 -0.000356 -0.000298 -0.000565
                                -0.001286  0.000150 -0.000099 -0.000011 -0.000021  0.000030  0.000268  0.000110 -0.000161  0.000279
                                 0.000109 -0.000097  0.000028 -0.000015  0.000005 -0.000027 -0.000026  0.000043 -0.000023  0.000102
                                -0.000240 -0.000693 -0.000080  0.004768  0.002166  0.000135 -0.000004 -0.000332  0.000478 -0.001110
                                -0.012214  0.000288  0.001538 -0.000028 -0.000035 -0.000006  0.000728  0.000398  0.000052  0.003432
                                 0.002906  0.000375 -0.000019  0.000013  0.000010 -0.000004 -0.000299 -0.000813 -0.000039 -0.000106
                                 0.000374  0.002049  0.004244 -0.000483 -0.014538 -0.000106  0.209138  0.975037 -0.001676 -0.007769
                                 0.000836  0.004265 -0.000580 -0.003945  0.000072 -0.000086 -0.002552 -0.001034 -0.000133  0.000680
                                 0.000264  0.000034 -0.001777 -0.000473  0.000014  0.000021  0.000086 -0.000001 -0.000010 -0.000492
                                -0.000861 -0.000006 -0.000066

   7.1   2    -9.5430  -52.1813 -0.000033 -0.000057  0.000251  0.001682  0.000291  0.000007 -0.000295 -0.000128  0.001677  0.001114
                                -0.002673  0.000829 -0.000601 -0.000010 -0.000014 -0.000016  0.000355  0.000074 -0.000105  0.000592
                                 0.000295  0.000036 -0.000007  0.000147 -0.000017  0.000059  0.000131 -0.000376 -0.000019 -0.000053
                                -0.000012 -0.000028  0.000076 -0.000448 -0.000221  0.000013 -0.000121 -0.000077  0.000505 -0.000835
                                 0.001132 -0.000694  0.000408 -0.000010 -0.000007 -0.000007 -0.000275  0.000218 -0.000005 -0.000616
                                 0.000503 -0.000135 -0.000008  0.000002 -0.000005  0.000010 -0.000142  0.000101  0.000008  0.000037
                                -0.000030 -0.000090 -0.000010 -0.000699 -0.000592 -0.000002 -0.000005 -0.000051  0.000173  0.000181
                                 0.000136 -0.000611  0.001038  0.000010  0.000014  0.000008  0.000103 -0.000101 -0.000027  0.000946
                                -0.000509 -0.000002 -0.000054  0.000054 -0.000004 -0.000022  0.000309 -0.000305  0.000014  0.000187
                                 0.000029  0.000344  0.000204 -0.000091 -0.000725  0.000114  0.977038 -0.209524 -0.001630  0.000235
                                 0.001239 -0.000307  0.001128 -0.000836 -0.000519  0.000137  0.000102 -0.000466 -0.000098 -0.000065
                                 0.000223  0.000033 -0.000258  0.000016 -0.000018  0.000055 -0.000017  0.000008  0.000023 -0.000271
                                 0.000107 -0.000023 -0.000131

   8.1   2    -1.5413  -18.2406 -0.012433  0.400662 -0.000013 -0.098237  0.022404  0.050917 -0.252860 -0.011007  0.060230 -0.019984
                                 0.127057  0.002643  0.000011  0.021313 -0.007416  0.001383  0.009346 -0.003422  0.001866 -0.017743
                                 0.005826 -0.000182  0.001446 -0.003356  0.000193 -0.000826 -0.000655  0.000813  0.000076 -0.000145
                                -0.000520  0.056481  0.001319 -0.054769 -0.031425  0.004973 -0.028008 -0.001261  0.007184 -0.010585
                                 0.042762 -0.003480  0.011027  0.001176 -0.000458 -0.000034 -0.006693  0.002656 -0.000419 -0.007200
                                 0.003829 -0.000896 -0.000478  0.000846  0.000014  0.000000 -0.001919  0.002985 -0.000072  0.000457
                                -0.008142  0.810457 -0.008679 -0.040455  0.011221 -0.050425  0.129947 -0.003605  0.002953  0.005675
                                -0.057612 -0.002235 -0.028109  0.007417 -0.002516  0.000263  0.022042 -0.006020  0.001158 -0.017332
                                 0.007040  0.000177 -0.002152  0.002809 -0.000085  0.000434 -0.002895 -0.000622 -0.000104 -0.000240
                                 0.000398  0.000217  0.210265 -0.002285 -0.015924 -0.035884 -0.000410 -0.003770  0.014394  0.070356
                                -0.000384  0.000342 -0.002333 -0.029699 -0.003402 -0.006062  0.006187  0.003031  0.000558  0.007131
                                 0.002174  0.000188 -0.005881  0.000262  0.000768  0.001011  0.002734 -0.000047 -0.000049  0.000692
                                -0.000337  0.000195  0.000773

   9.1   2    -1.2945  -18.5255  0.005789 -0.363732 -0.001347  0.088596 -0.010155 -0.006130 -0.011419 -0.007227  0.029650 -0.000567
                                -0.012490 -0.002994 -0.002678 -0.015105  0.006664 -0.000977 -0.002178  0.004681 -0.000544 -0.003453
                                -0.001684  0.000240 -0.001256  0.001272 -0.000118  0.000497  0.000294 -0.005409  0.000060  0.000144
                                 0.003968 -0.262198  0.002885  0.045478  0.014290 -0.021095  0.098301 -0.000073  0.001940  0.007952
                                -0.019521  0.003516 -0.002727 -0.005164  0.001943  0.000004 -0.009772  0.003484  0.000240 -0.001951
                                -0.000031  0.001062 -0.000729  0.001550 -0.000038  0.000238 -0.000451  0.000526  0.000025 -0.000136
                                 0.000083 -0.071251  0.000496  0.019950 -0.007430  0.001080 -0.216274 -0.001337  0.003034  0.002039
                                 0.109340  0.004661  0.005932 -0.002150  0.002108 -0.000020  0.001547  0.004749  0.000038  0.014307
[...]
                                 0.000006  0.000024  0.000025  0.000475  0.000380  0.000024 -0.000007 -0.000075  0.000055 -0.000145
                                 0.000509  0.000075  0.000134  0.000003 -0.000007  0.000005 -0.000102  0.000058 -0.000027 -0.000246
                                 0.000095 -0.000018  0.000005  0.000007  0.000001 -0.000004 -0.000014  0.000042 -0.000005  0.000015
                                -0.000020 -0.000075 -0.000035  0.000057 -0.000730  0.000017  0.000052 -0.000037 -0.000065  0.000223
                                 0.001167  0.000123 -0.001064 -0.000011 -0.000005  0.000000  0.000178  0.000067 -0.000001  0.000146
                                -0.000066 -0.000013 -0.000017 -0.000025  0.000001 -0.000004  0.000030  0.000049 -0.000001 -0.000012
                                -0.000193  0.998846 -0.001926  0.000670  0.002950 -0.001390 -0.000016 -0.000126 -0.000033 -0.000318
                                 0.000021  0.000173  0.000106  0.001027 -0.000123 -0.000233 -0.000059 -0.000020  0.000002  0.000017
                                 0.000006  0.000000  0.000405  0.000090 -0.000010 -0.000018 -0.000042  0.000001  0.000000  0.000019
                                 0.000064 -0.000003 -0.000007

   3.1   2    -9.5721  -47.7332 -0.000001  0.000024  0.000246  0.001576  0.000288  0.000006 -0.000274 -0.000104  0.001616  0.001113
                                -0.002697  0.000814 -0.000604 -0.000011 -0.000015 -0.000014  0.000317  0.000074 -0.000103  0.000558
                                 0.000303  0.000035 -0.000004  0.000145 -0.000016  0.000055  0.000136 -0.000376 -0.000018 -0.000052
                                 0.000001  0.000009  0.000069 -0.000365 -0.000207  0.000011 -0.000101 -0.000073  0.000465 -0.000822
                                 0.001108 -0.000682  0.000410 -0.000008 -0.000007 -0.000007 -0.000271  0.000216 -0.000005 -0.000615
                                 0.000496 -0.000133 -0.000009  0.000002 -0.000005  0.000010 -0.000141  0.000101  0.000008  0.000037
                                -0.000023 -0.000077 -0.000015 -0.000726 -0.000644 -0.000019 -0.000006 -0.000041  0.000192  0.000183
                                 0.000085 -0.000607  0.001025  0.000006  0.000015  0.000009  0.000104 -0.000124 -0.000026  0.000904
                                -0.000497  0.000002 -0.000052  0.000057 -0.000004 -0.000021  0.000303 -0.000324  0.000013  0.000182
                                 0.000010  0.000066  0.000119 -0.000007 -0.000629  0.000120  0.973851 -0.225016 -0.001503  0.000125
                                 0.000777 -0.000086  0.001058 -0.000743 -0.000496  0.000135  0.000143 -0.000499 -0.000122 -0.000049
                                 0.000107  0.000029 -0.000262  0.000045 -0.000006  0.000004 -0.000005  0.000004  0.000018 -0.000227
                                 0.000102 -0.000020 -0.000123

   4.1   2    -9.5720  -47.7316  0.000132  0.000485  0.000328  0.003009 -0.000082  0.000296 -0.000060 -0.000417 -0.000850 -0.000114
                                -0.001668 -0.000364 -0.000008 -0.000099 -0.000021  0.000072 -0.000308  0.000756 -0.000298  0.001662
                                -0.000317 -0.000147 -0.000098 -0.000019  0.000027 -0.000037  0.000184  0.001204 -0.000090  0.000251
                                -0.000156 -0.000543 -0.000022 -0.000144 -0.000328  0.000101  0.000092 -0.000344 -0.000253 -0.000564
                                -0.001109  0.000146 -0.000041 -0.000010 -0.000020  0.000028  0.000229  0.000124 -0.000160  0.000217
                                 0.000133 -0.000094  0.000026 -0.000012  0.000005 -0.000026 -0.000037  0.000048 -0.000023  0.000102
                                -0.000195 -0.000674 -0.000091  0.004357  0.001659  0.000130  0.000054 -0.000302  0.000532 -0.001021
                                -0.011521  0.000347  0.001790 -0.000035 -0.000037 -0.000006  0.000690  0.000355  0.000049  0.003373
                                 0.002762  0.000360 -0.000013  0.000027  0.000010 -0.000002 -0.000288 -0.000815 -0.000037 -0.000096
                                 0.000280  0.001833  0.003368 -0.000181 -0.013393  0.000436  0.224485  0.971834 -0.001751 -0.007644
                                 0.000882  0.003836 -0.000421 -0.003357  0.000078 -0.000006 -0.002368 -0.000977 -0.000131  0.000358
                                 0.000151  0.000022 -0.001588 -0.000418  0.000017 -0.000029 -0.000036 -0.000002 -0.000019 -0.000442
                                -0.000727 -0.000006 -0.000062

   5.1   2    -1.2777  -14.7909 -0.000248 -0.000928 -0.000461  0.001972  0.003666  0.000176  0.000182 -0.003294  0.003316  0.000127
                                -0.007050 -0.000399 -0.003686  0.000146  0.000158 -0.000055  0.001322  0.001454 -0.000395 -0.006254
                                 0.001885 -0.000250 -0.000417 -0.000051 -0.000041  0.000206  0.001292 -0.001146 -0.000075  0.000218
                                 0.000083  0.000307  0.000188  0.005189  0.004129  0.000115 -0.000061 -0.000507  0.000394 -0.000929
                                 0.004750  0.000914  0.001589  0.000016 -0.000033  0.000034 -0.000840  0.000332 -0.000246 -0.002488
                                 0.000637 -0.000136  0.000036  0.000057  0.000004 -0.000015  0.000020  0.000403 -0.000044  0.000123
                                 0.000081  0.000279 -0.000118 -0.006271 -0.009369 -0.000028  0.000066 -0.000131 -0.001078  0.004260
                                 0.016032  0.002009 -0.009934  0.000048 -0.000006  0.000006  0.000436  0.000413 -0.000049  0.000539
                                -0.000488 -0.000146  0.000000 -0.000016  0.000009 -0.000011  0.000945  0.001334 -0.000019 -0.000016
                                -0.000189 -0.001214  0.997803 -0.000014  0.009742 -0.000554  0.000167  0.000308  0.000531  0.000986
                                -0.000240 -0.000452  0.001668  0.012045 -0.001364 -0.002411  0.001044  0.000464  0.000093 -0.000027
                                -0.000020 -0.000010  0.004687  0.001286 -0.000060 -0.000036 -0.000113  0.000008  0.000018  0.000450
                                 0.000937 -0.000020 -0.000007

   6.1   2    -0.5912  -12.3748 -0.000111 -0.000409 -0.000448  0.012327 -0.008885  0.000350  0.000082 -0.004077 -0.000867 -0.010037
                                -0.017797 -0.006799 -0.003292  0.000209  0.000088  0.000001  0.002129  0.001200 -0.001140  0.002399
                                -0.003260 -0.001004 -0.000082 -0.000056 -0.000022  0.000129  0.000769 -0.000461 -0.000366  0.001165
                                 0.000050  0.000182  0.000060  0.000094 -0.007341  0.000180 -0.000052 -0.000775  0.000232  0.003702
                                 0.003174  0.003406  0.005011  0.000025  0.000024  0.000052 -0.000436 -0.000066 -0.000436 -0.001790
                                -0.000967  0.000639  0.000027  0.000037 -0.000007  0.000009  0.000107  0.000189 -0.000020  0.000118
                                 0.000188  0.000684  0.000468 -0.015770 -0.036759 -0.000058 -0.000260 -0.000146 -0.000499  0.005217
                                -0.003680  0.010483  0.038722  0.000030 -0.000029 -0.000005 -0.001847 -0.000282 -0.000055  0.009183
                                 0.006772  0.000892  0.000098  0.000180  0.000027  0.000009  0.001449  0.001544 -0.000116  0.000184
                                 0.000279  0.001725  0.003060 -0.000720 -0.015782  0.058949 -0.000110 -0.000541  0.203842  0.976976
                                 0.000126  0.000620  0.000305 -0.000310  0.006327  0.024856 -0.000712 -0.000376 -0.000065  0.000203
                                 0.000097  0.000017  0.002520  0.001565  0.000231  0.000056  0.000157  0.000002  0.000011  0.000372
                                 0.000554 -0.000002  0.000040

   7.1   2    -0.5912  -12.3736 -0.000412 -0.001534 -0.000333  0.013029  0.002858 -0.000047 -0.000003 -0.000317  0.003802  0.006501
                                -0.016606  0.005182 -0.004806 -0.000056 -0.000053 -0.000016  0.003363  0.000539 -0.000124  0.006938
                                 0.001440  0.000076 -0.000011  0.000131 -0.000007  0.000030  0.000007 -0.000588  0.000144 -0.000932
                                -0.000135 -0.000474  0.000119 -0.003128 -0.003375  0.000036 -0.000203 -0.000259  0.001329 -0.005043
                                 0.004139 -0.005062  0.003392  0.000003 -0.000061 -0.000035 -0.000679  0.000915  0.000197 -0.003401
                                 0.002980 -0.000569  0.000030 -0.000085 -0.000007  0.000002 -0.000768  0.000652  0.000063 -0.000002
                                -0.000127 -0.000435  0.000001 -0.010506 -0.004456 -0.000078  0.000041  0.000458 -0.000357  0.000393
                                -0.000445 -0.002890  0.012011  0.000011  0.000003  0.000029 -0.000018 -0.000185 -0.000244  0.006773
                                -0.001947 -0.000654 -0.000106  0.000085 -0.000029 -0.000043  0.000111  0.000073  0.000132  0.000072
                                 0.000060  0.000386  0.000703 -0.000074 -0.004662  0.004337  0.001314 -0.000596  0.982828 -0.206092
                                -0.001843  0.000795 -0.010120 -0.001277  0.011870 -0.001753  0.000430 -0.001172 -0.000277 -0.000110
                                 0.000231  0.000057 -0.001621  0.000008  0.000016  0.000122 -0.000049  0.000012  0.000065 -0.000527
                                 0.000293 -0.000042 -0.000251

                                   1 2py     1 2py     1 2py     1 2py     1 3d2-    1 3d1-    1 3d2-    1 3d1-    1 3d2-    1 3d1- 
                                   1 4f1-    1 4f2-    1 4f3-    1 4f1-    1 4f2-    1 4f3-    2 2py     2 2py     2 2py     2 2py  
                                   2 3d2-    2 3d1-    2 3d2-    2 3d1-    2 3d2-    2 3d1-    2 4f1-    2 4f2-    2 4f3-    2 4f1- 
                                   2 4f2-    2 4f3-    3 2py     3 2py     3 2py     3 2py     3 3d2-    3 3d1-    3 3d2-    3 3d1- 
                                   3 3d2-    3 3d1-    3 4f1-    3 4f2-    3 4f3-    3 4f1-    3 4f2-    3 4f3-    4 2py     4 2py  
                                   4 2py     4 2py     4 2py     4 3d2-    4 3d1-    4 3d2-    4 3d1-    4 3d2-    4 3d1-    4 4f1- 
                                   4 4f2-    4 4f3-    4 4f1-    4 4f2-    4 4f3- 

   1.2   2    -9.5721  -47.7333 -0.000108 -0.000032  0.001260  0.001081 -0.000033  0.000059 -0.000125  0.000029  0.000061  0.000246
                                -0.000001  0.000088 -0.000024  0.000058 -0.000026 -0.000026 -0.000027  0.000070 -0.000561 -0.000816
                                -0.000007  0.000000  0.000021 -0.000011 -0.000127  0.000331  0.000009  0.000008 -0.000005 -0.000027
                                 0.000013  0.000011 -0.000049  0.000051  0.000104 -0.000973  0.000008  0.000019 -0.000036 -0.000061
                                 0.000038 -0.000351 -0.000049 -0.000027 -0.000002  0.000443  0.000185  0.000008  0.999555 -0.001355
                                 0.000704  0.001209 -0.000586 -0.000109 -0.000418  0.000026  0.000095  0.000030  0.000117  0.000003
                                 0.000009  0.000001 -0.000216 -0.000097 -0.000014

   2.2   2    -0.5912  -12.3735 -0.000405  0.002586  0.009828  0.007880 -0.000032 -0.000041  0.000383 -0.001303  0.000630  0.000147
                                 0.000255 -0.000020 -0.000006 -0.000467 -0.001254  0.000241 -0.000100  0.000435 -0.002722 -0.005835
                                -0.000065  0.000004  0.000473  0.000092 -0.000375  0.002198 -0.000013  0.000025 -0.000012 -0.000429
                                -0.000205  0.000107 -0.000068  0.000431 -0.004248 -0.006994  0.000022  0.000047 -0.000168 -0.000632
                                -0.000454 -0.004238 -0.000122 -0.000049 -0.000033 -0.000208  0.000197  0.000131  0.001579  1.004734
                                -0.002223 -0.009895  0.011301 -0.000215 -0.000814  0.000046  0.000178  0.000116  0.000176  0.000120
                                 0.000044  0.000006 -0.000468 -0.000152 -0.000018


 **********************************************************************************************************************************
 DATASETS  * FILE   NREC   LENGTH (MB)   RECORD NAMES
              1      19      310.45       500      610      700      900      950      970     1001      129      960     1100   
                                          VAR    BASINP    GEOM    SYMINP    ZMAT    AOBASIS   BASIS     P2S    ABASIS      S 
                                         1400     1410     1200     1210     1080     1600     1650     1300     1700   
                                           T        V       H0       H01     AOSYM     SMH    MOLCAS    ERIS     OPER   

              2       7        2.52       700     1000     2100     1001     2101     2102     2103   
                                         GEOM     BASIS     RHF     BASIS     RHF      RHF      RHF  

 PROGRAMS   *        TOTAL        HF       INT  RCCSD(T)        HF       INT  RCCSD(T)        HF       INT        HF       INT
 CPU TIMES  *       871.72      2.34      0.03    200.31      5.69      0.03    648.63      6.57      7.77      0.07      0.23
 REAL TIME  *       891.54 SEC
 DISK USED  *         1.90 GB      
 GA USED    *         0.00 MB       (max)       0.00 MB       (current)
 **********************************************************************************************************************************


1PROGRAM * CCSD (Restricted open-shell coupled cluster)     Authors: C. Hampel, H.-J. Werner, 1991, M. Deegan, P.J. Knowles, 1992


 Convergence thresholds:  THRVAR = 1.00D-08  THRDEN = 1.00D-06

 CCSD(T)     terms to be evaluated (factor= 1.000)


 Number of core orbitals:           5 (   4   1 )
 Number of closed-shell orbitals:   4 (   3   1 )
 Number of external orbitals:     179 ( 116  63 )

 Memory could be reduced to 33.39 Mwords without degradation in triples

 Number of N-1 electron functions:               8
 Number of N-2 electron functions:              28
 Number of singly external CSFs:               822
 Number of doubly external CSFs:            357532
 Total number of CSFs:                      358354

 Molecular orbitals read from record     2103.2  Type=RHF/CANONICAL (state 1.1)

 Integral transformation finished. Total CPU:   1.40 sec, npass=  1  Memory used:   5.18 MW

 Starting RMP2 calculation

 Wavefunction is spin-projected

 ITER.      SQ.NORM     CORR.ENERGY   TOTAL ENERGY   ENERGY CHANGE        DEN1      VAR(S)    VAR(P)  DIIS     TIME
   1      1.06217153    -0.21237125  -527.02586118    -0.21237125    -0.00068955  0.36D-13  0.24D-03  1  1     1.75
   2      1.06271886    -0.21310712  -527.02659705    -0.00073588    -0.00000030  0.33D-15  0.12D-06  2  2     1.77
   3      1.06272583    -0.21311222  -527.02660215    -0.00000510     0.00000000  0.42D-17  0.11D-09  3  3     1.80
   4      1.06272588    -0.21311223  -527.02660216    -0.00000001     0.00000000  0.47D-19  0.14D-12  4  4     1.83

 Norm of t1 vector:      0.00000188      S-energy:     0.00000000      T1 diagnostic:  0.00000047
 Norm of t2 vector:      0.25045136      P-energy:    -0.21311223
                                         Alpha-Beta:  -0.16020862
                                         Alpha-Alpha: -0.02645181
                                         Beta-Beta:   -0.02645181

 Spin contamination <S**2-Sz**2-Sz>     0.00000000
  Reference energy                   -526.813489928833
  RHF-RMP2 correlation energy          -0.213112233630
 !RHF-RMP2 energy                    -527.026602162463
 (NB above energy spin projected)

 Starting RCCSD calculation

 ITER.      SQ.NORM     CORR.ENERGY   TOTAL ENERGY   ENERGY CHANGE        DEN1      VAR(S)    VAR(P)  DIIS     TIME
   1      1.06934829    -0.22493738  -527.03842731    -0.22493738    -0.00460401  0.36D-04  0.12D-02  1  1     3.98
   2      1.07298383    -0.22992331  -527.04341324    -0.00498593    -0.00008034  0.20D-05  0.23D-04  2  2     6.12
   3      1.07331519    -0.23017588  -527.04366580    -0.00025256    -0.00000299  0.15D-06  0.85D-06  3  3     8.26
   4      1.07338297    -0.23022002  -527.04370995    -0.00004415    -0.00000014  0.16D-07  0.39D-07  4  4    10.40
   5      1.07339216    -0.23022449  -527.04371442    -0.00000447    -0.00000001  0.20D-08  0.16D-08  5  5    12.54
   6      1.07339298    -0.23022417  -527.04371410     0.00000032     0.00000000  0.14D-09  0.11D-09  6  6    14.69

 Norm of t1 vector:      0.00770000      S-energy:    -0.00000002      T1 diagnostic:  0.00192500
                                                                       D1 diagnostic:  0.00293007
 Norm of t2 vector:      0.27080195      P-energy:    -0.23022415
                                         Alpha-Beta:  -0.17889394
                                         Alpha-Alpha: -0.02566510
                                         Beta-Beta:   -0.02566510

 Spin contamination <S**2-Sz**2-Sz>     0.00000000

 Memory could be reduced to 32.07 Mwords without degradation in triples
 

 RESULTS
 =======

  Reference energy                   -526.813489928833
  RCCSD singles energy                 -0.000000023820
  RCCSD pair energy                    -0.230224147024
  RCCSD correlation energy             -0.230224170844
  Triples (T) contribution             -0.007489491548
  Total correlation energy             -0.237713662391
 
  RHF-RCCSD energy                   -527.043714099677
  RHF-RCCSD[T] energy                -527.051216307116
  RHF-RCCSD-T energy                 -527.051206551622
 !RHF-RCCSD(T) energy                -527.051203591224

 Program statistics:

 Available memory in ccsd:               999999732
 Min. memory needed in ccsd:               1447103
 Max. memory used in ccsd:                 1828065
 Max. memory used in cckext:               2330767 ( 6 integral passes)
 Max. memory used in cckint:               5179241 ( 1 integral passes)



 **********************************************************************************************************************************
 DATASETS  * FILE   NREC   LENGTH (MB)   RECORD NAMES
              1      19      310.45       500      610      700      900      950      970     1001      129      960     1100   
                                          VAR    BASINP    GEOM    SYMINP    ZMAT    AOBASIS   BASIS     P2S    ABASIS      S 
                                         1400     1410     1200     1210     1080     1600     1650     1300     1700   
                                           T        V       H0       H01     AOSYM     SMH    MOLCAS    ERIS     OPER   

              2       7        2.52       700     1000     2100     1001     2101     2102     2103   
                                         GEOM     BASIS     RHF     BASIS     RHF      RHF      RHF  

 PROGRAMS   *        TOTAL  RCCSD(T)        HF       INT  RCCSD(T)        HF       INT  RCCSD(T)        HF       INT        HF
 CPU TIMES  *       903.49     31.77      2.34      0.03    200.31      5.69      0.03    648.63      6.57      7.77      0.07
 REAL TIME  *       924.09 SEC
 DISK USED  *         1.90 GB      
 GA USED    *         0.00 MB       (max)       0.00 MB       (current)
 **********************************************************************************************************************************
 SETTING E_AR           =      -527.05120359  AU                              
 SETTING DE_CP          =     40883.71726778  CM-1                            

        RCCSD(T)        HF-SCF          RCCSD(T)        HF-SCF          RCCSD(T)        HF-SCF          HF-SCF  
   -527.05120359   -526.81348993   -167.76239303   -167.18148053   -694.62731670   -693.77807089   -693.78307222
 **********************************************************************************************************************************
 Variable memory released
