
 Primary working directories    : /tmp/yuant
 Secondary working directories  : /tmp/yuant
 Wavefunction directory         : /home/yuant/wfu/
 Main file repository           : /tmp/yuant/

 ARCHNAME  : Linux/x86_64
 FC        : /opt/intel/compilerpro-12.0.1.107/bin/intel64/ifort
 FCVERSION : 12.0.0
 BLASLIB   : 
 id        : scu

 Nodes     nprocs
 linux-en55    1
 ga_uses_ma=false, calling ma_init with nominal heap.
 GA-space will be limited to   8.0 MW (determined by -G option)

 Using customized tuning parameters: mindgm=4; mindgv=4; mindgc=1; mindgr=1; noblas=0; mincuda=1000; minvec=7
 default implementation of scratch files=df  

 MEMORY,1000,M
 print, basis, orbitals
 angstrom
 geometry={
 q1
 q2,q1,rqq
 C,q1,rcq1,q2,acq2
 N,q1,rnq1,q2,anq2,C,dnc
 O,q1,roq1,q2,aoq2,C,doc
 Ar,q1,rarq,O,aaro,q2,darq
 }
 rqq=1.0
 rcq1=0.036898
 rnq1=1.268889
 roq1=1.138557
 acq2=90
 anq2=90
 aoq2=90
 dnc=0
 doc=180
 darq=180                                                                        ! variables always fixed
  
 rarq=3.0                                                                        ! scan
 aaro=0                                                                          ! fixed here
  
 do i=1,9
  
 text,calculation for complex
 basis=cc-pvdz
 set,charge=-1
 {hf
 save,2100.2
 }
 basis=aug-cc-pvqz
 set,charge=0
 {hf
 open,4.3
 wf,39,3,1                                                                       ! Cs group
 start,2100.2
 }
 rccsd(t)
 e_NCOAr(i)=energy
  
 text,cp calculation for NCO
 dummy,Ar
 {hf
 open,2.3
 wf,21,3,1
 }
 rccsd(t)
 e_NCO(i)=energy
  
 text, cp calculation for Ar
 dummy,N,C,O
 hf
 rccsd(t)
 e_Ar(i)=energy
  
 de_cp(i)=(e_NCOAr(i)-e_NCO(i)-e_Ar(i))*tocm
 r(i)=rarq
 rarq=rarq+0.5
 enddo
  
 {table,r,de_cp,e_NCOAr,e_NCO,e_Ar
 head,R,E_cp,E_complex,E_NCO,E_Ar
 save,PES_0-qz.tab
 title,Result for angle 0
 }

 Variables initialized (664), CPU time= 0.00 sec
 Commands  initialized (462), CPU time= 0.00 sec, 486 directives.
 Default parameters read. Elapsed time= 0.02 sec

 Checking input...
 Passed
1


                                         ***  PROGRAM SYSTEM MOLPRO  ***
                         Copyright, University College Cardiff Consultants Limited, 2008

                                    Version 2010.1 linked 26 Jan 2011 12:51:57


 **********************************************************************************************************************************
 LABEL *                                                                                 
 Linux-3.4.6-2.10-desktop/linux-en55(x86_64) 64 bit mpp version                          DATE: 03-Jan-19          TIME: 08:37:56  
 **********************************************************************************************************************************

 Patch level:      13
 **********************************************************************************************************************************

 ZUNIT=ANG
 
 SETTING RQQ            =         1.00000000                                  
 SETTING RCQ1           =         0.03689800                                  
 SETTING RNQ1           =         1.26888900                                  
 SETTING ROQ1           =         1.13855700                                  
 SETTING ACQ2           =        90.00000000                                  
 SETTING ANQ2           =        90.00000000                                  
 SETTING AOQ2           =        90.00000000                                  
 SETTING DNC            =         0.00000000                                  
 SETTING DOC            =       180.00000000                                  
 SETTING DARQ           =       180.00000000                                  
 SETTING RARQ           =         3.00000000                                  
 SETTING AARO           =         0.00000000                                  

 DO I                   =         1.00000000   

 *** calculation for complex

 Variable memory set to 1000000000 words,  buffer space   230000 words

 SETTING BASIS          =    CC-PVDZ
 SETTING CHARGE         =        -1.00000000                                  


 Recomputing integrals since basis changed


 Using spherical harmonics

 Library entry C      S cc-pVDZ              selected for orbital group  1
 Library entry C      P cc-pVDZ              selected for orbital group  1
 Library entry C      D cc-pVDZ              selected for orbital group  1
 Library entry N      S cc-pVDZ              selected for orbital group  2
 Library entry N      P cc-pVDZ              selected for orbital group  2
 Library entry N      D cc-pVDZ              selected for orbital group  2
 Library entry O      S cc-pVDZ              selected for orbital group  3
 Library entry O      P cc-pVDZ              selected for orbital group  3
 Library entry O      D cc-pVDZ              selected for orbital group  3
 Library entry AR     S cc-pVDZ              selected for orbital group  4
 Library entry AR     P cc-pVDZ              selected for orbital group  4
 Library entry AR     D cc-pVDZ              selected for orbital group  4

1PROGRAM * SEWARD (Integral evaluation for generally contracted gaussian basis sets)     Author: Roland Lindh, 1990

 Geometry written to block  1 of record 700

 Orientation using atomic masses  
 Molecule type: Linear
 Symmetry elements: X,Y
 Rotational constants:       2.2203518      2.2203518      0.0000000 GHz  (calculated with average atomic masses)

 Point group  C2v 



 ATOMIC COORDINATES

 NR  ATOM    CHARGE       X              Y              Z

   1  C       6.00    0.000000000    0.000000000    2.832763168
   2  N       7.00    0.000000000    0.000000000    5.160888754
   3  O       8.00    0.000000000    0.000000000    0.611475138
   4  AR     18.00    0.000000000    0.000000000   -2.906142341

 Bond lengths in Bohr (Angstrom)

 1-2  2.328125586  1-3  2.221288030  3-4  3.517617479
     (1.231991000)     (1.175455000)     (1.861443000)

 Bond angles

  1-3-4  180.00000000   2-1-3  180.00000000


 BASIS DATA

   Nr Sym  Nuc  Type         Exponents   Contraction coefficients

   1.1 A1    1  1s         6665.000000     0.000692   -0.000146    0.000000
   2.1 A1                  1000.000000     0.005329   -0.001154    0.000000
   3.1 A1                   228.000000     0.027077   -0.005725    0.000000
                             64.710000     0.101718   -0.023312    0.000000
                             21.060000     0.274740   -0.063955    0.000000
                              7.495000     0.448564   -0.149981    0.000000
                              2.797000     0.285074   -0.127262    0.000000
                              0.521500     0.015204    0.544529    0.000000
                              0.159600    -0.003191    0.580496    1.000000
   4.1 A1    1  2pz           9.439000     0.038109    0.000000
   5.1 A1                     2.002000     0.209480    0.000000
                              0.545600     0.508557    0.000000
                              0.151700     0.468842    1.000000
   6.1 A1    1  3d0           0.550000     1.000000
   7.1 A1    1  3d2+          0.550000     1.000000
   8.1 A1    2  1s         9046.000000     0.000700   -0.000153    0.000000
   9.1 A1                  1357.000000     0.005389   -0.001208    0.000000
  10.1 A1                   309.300000     0.027406   -0.005992    0.000000
                             87.730000     0.103207   -0.024544    0.000000
                             28.560000     0.278723   -0.067459    0.000000
                             10.210000     0.448540   -0.158078    0.000000
                              3.838000     0.278238   -0.121831    0.000000
                              0.746600     0.015440    0.549003    0.000000
                              0.224800    -0.002864    0.578815    1.000000
  11.1 A1    2  2pz          13.550000     0.039919    0.000000
  12.1 A1                     2.917000     0.217169    0.000000
                              0.797300     0.510319    0.000000
                              0.218500     0.462214    1.000000
  13.1 A1    2  3d0           0.817000     1.000000
  14.1 A1    2  3d2+          0.817000     1.000000
  15.1 A1    3  1s        11720.000000     0.000710   -0.000160    0.000000
  16.1 A1                  1759.000000     0.005470   -0.001263    0.000000
  17.1 A1                   400.800000     0.027837   -0.006267    0.000000
                            113.700000     0.104800   -0.025716    0.000000
                             37.030000     0.283062   -0.070924    0.000000
                             13.270000     0.448719   -0.165411    0.000000
                              5.025000     0.270952   -0.116955    0.000000
                              1.013000     0.015458    0.557368    0.000000
                              0.302300    -0.002585    0.572759    1.000000
  18.1 A1    3  2pz          17.700000     0.043018    0.000000
  19.1 A1                     3.854000     0.228913    0.000000
                              1.046000     0.508728    0.000000
                              0.275300     0.460531    1.000000
  20.1 A1    3  3d0           1.185000     1.000000
  21.1 A1    3  3d2+          1.185000     1.000000
  22.1 A1    4  1s       145700.000000     0.000237   -0.000067    0.000021    0.000000
  23.1 A1                 21840.000000     0.001835   -0.000519    0.000163    0.000000
  24.1 A1                  4972.000000     0.009529   -0.002748    0.000855    0.000000
  25.1 A1                  1408.000000     0.038628   -0.011101    0.003497    0.000000
                            459.700000     0.124081   -0.038482    0.012016    0.000000
                            165.900000     0.296471   -0.099760    0.032137    0.000000
                             64.690000     0.422068   -0.203088    0.065528    0.000000
                             26.440000     0.241711   -0.135608    0.049937    0.000000
                              7.628000     0.020051    0.507195   -0.229769    0.000000
                              2.996000    -0.003610    0.612898   -0.421006    0.000000
                              0.650400     0.000976    0.044297    0.642331    0.000000
                              0.233700    -0.000411   -0.008993    0.567540    1.000000
  26.1 A1    4  2pz         453.700000     0.005706   -0.001607    0.000000
  27.1 A1                   106.800000     0.043046   -0.012171    0.000000
  28.1 A1                    33.730000     0.176591   -0.052079    0.000000
                             12.130000     0.406863   -0.123737    0.000000
                              4.594000     0.452549   -0.151619    0.000000
                              1.678000     0.122801    0.142425    0.000000
                              0.590900    -0.004460    0.584501    0.000000
                              0.185200     0.002052    0.437540    1.000000
  29.1 A1    4  3d0           0.738000     1.000000
  30.1 A1    4  3d2+          0.738000     1.000000
   1.2 B1    1  2px           9.439000     0.038109    0.000000
   2.2 B1                     2.002000     0.209480    0.000000
                              0.545600     0.508557    0.000000
                              0.151700     0.468842    1.000000
   3.2 B1    1  3d1+          0.550000     1.000000
   4.2 B1    2  2px          13.550000     0.039919    0.000000
   5.2 B1                     2.917000     0.217169    0.000000
                              0.797300     0.510319    0.000000
                              0.218500     0.462214    1.000000
   6.2 B1    2  3d1+          0.817000     1.000000
   7.2 B1    3  2px          17.700000     0.043018    0.000000
   8.2 B1                     3.854000     0.228913    0.000000
                              1.046000     0.508728    0.000000
                              0.275300     0.460531    1.000000
   9.2 B1    3  3d1+          1.185000     1.000000
  10.2 B1    4  2px         453.700000     0.005706   -0.001607    0.000000
  11.2 B1                   106.800000     0.043046   -0.012171    0.000000
  12.2 B1                    33.730000     0.176591   -0.052079    0.000000
                             12.130000     0.406863   -0.123737    0.000000
                              4.594000     0.452549   -0.151619    0.000000
                              1.678000     0.122801    0.142425    0.000000
                              0.590900    -0.004460    0.584501    0.000000
                              0.185200     0.002052    0.437540    1.000000
  13.2 B1    4  3d1+          0.738000     1.000000
   1.3 B2    1  2py           9.439000     0.038109    0.000000
   2.3 B2                     2.002000     0.209480    0.000000
                              0.545600     0.508557    0.000000
                              0.151700     0.468842    1.000000
   3.3 B2    1  3d1-          0.550000     1.000000
   4.3 B2    2  2py          13.550000     0.039919    0.000000
   5.3 B2                     2.917000     0.217169    0.000000
                              0.797300     0.510319    0.000000
                              0.218500     0.462214    1.000000
   6.3 B2    2  3d1-          0.817000     1.000000
   7.3 B2    3  2py          17.700000     0.043018    0.000000
   8.3 B2                     3.854000     0.228913    0.000000
                              1.046000     0.508728    0.000000
                              0.275300     0.460531    1.000000
   9.3 B2    3  3d1-          1.185000     1.000000
  10.3 B2    4  2py         453.700000     0.005706   -0.001607    0.000000
  11.3 B2                   106.800000     0.043046   -0.012171    0.000000
  12.3 B2                    33.730000     0.176591   -0.052079    0.000000
                             12.130000     0.406863   -0.123737    0.000000
                              4.594000     0.452549   -0.151619    0.000000
                              1.678000     0.122801    0.142425    0.000000
                              0.590900    -0.004460    0.584501    0.000000
                              0.185200     0.002052    0.437540    1.000000
  13.3 B2    4  3d1-          0.738000     1.000000
   1.4 A2    1  3d2-          0.550000     1.000000
   2.4 A2    2  3d2-          0.817000     1.000000
   3.4 A2    3  3d2-          1.185000     1.000000
   4.4 A2    4  3d2-          0.738000     1.000000

 NUCLEAR CHARGE:                   39
 NUMBER OF PRIMITIVE AOS:         123
 NUMBER OF SYMMETRY AOS:          119
 NUMBER OF CONTRACTIONS:           60   (  30A1  +  13B1  +  13B2  +   4A2  )
 NUMBER OF CORE ORBITALS:           8   (   6A1  +   1B1  +   1B2  +   0A2  )
 NUMBER OF VALENCE ORBITALS:       16   (   8A1  +   4B1  +   4B2  +   0A2  )


 NUCLEAR REPULSION ENERGY  127.33347428

 EXTRA SYMMETRY OF AOS IN SYMMETRY 1:   1 1 1 1 1 1 2 1 1 1   1 1 1 2 1 1 1 1 1 1   2 1 1 1 1 1 1 1 1 2

 Eigenvalues of metric

         1 0.573E-02 0.114E-01 0.204E-01 0.300E-01 0.488E-01 0.740E-01 0.876E-01 0.128E+00
         2 0.962E-01 0.136E+00 0.180E+00 0.192E+00 0.266E+00 0.585E+00 0.960E+00 0.100E+01
         3 0.962E-01 0.136E+00 0.180E+00 0.192E+00 0.266E+00 0.585E+00 0.960E+00 0.100E+01
         4 0.801E+00 0.997E+00 0.100E+01 0.120E+01


 Contracted 2-electron integrals neglected if value below      1.0D-11
 AO integral compression algorithm  1   Integral accuracy      1.0D-11

     2.359 MB (compressed) written to integral file ( 48.7%)

     Node minimum: 2.359 MB, node maximum: 2.359 MB


 NUMBER OF SORTED TWO-ELECTRON INTEGRALS:     475755.     BUFFER LENGTH:  32768
 NUMBER OF SEGMENTS:   1  SEGMENT LENGTH:     475755      RECORD LENGTH: 524288

 Memory used in sort:       1.03 MW

 SORT1 READ      578119. AND WROTE      411221. INTEGRALS IN      2 RECORDS. CPU TIME:     0.01 SEC, REAL TIME:     0.01 SEC
 SORT2 READ      411221. AND WROTE      475755. INTEGRALS IN      9 RECORDS. CPU TIME:     0.02 SEC, REAL TIME:     0.02 SEC

 FILE SIZES:   FILE 1:     4.5 MBYTE,  FILE 4:     8.4 MBYTE,   TOTAL:     12.9 MBYTE

 OPERATOR DM      FOR CENTER  0  COORDINATES:    0.000000    0.000000    0.000000


 **********************************************************************************************************************************
 DATASETS  * FILE   NREC   LENGTH (MB)   RECORD NAMES
              1      19        4.47       500      610      700      900      950      970     1000      129      960     1100   
                                          VAR    BASINP    GEOM    SYMINP    ZMAT    AOBASIS   BASIS     P2S    ABASIS      S 
                                         1400     1410     1200     1210     1080     1600     1650     1300     1700   
                                           T        V       H0       H01     AOSYM     SMH    MOLCAS    ERIS     OPER   

 PROGRAMS   *        TOTAL       INT
 CPU TIMES  *         0.27      0.23
 REAL TIME  *         0.52 SEC
 DISK USED  *        15.84 MB      
 GA USED    *         0.00 MB       (max)       0.00 MB       (current)
 **********************************************************************************************************************************

1PROGRAM * RHF-SCF (CLOSED SHELL)       Authors: W. Meyer, H.-J. Werner


 NUMBER OF ELECTRONS:      20+   20-
 CONVERGENCE THRESHOLDS:    1.00E-05 (Density)    1.00E-07 (Energy)
 MAX. NUMBER OF ITERATIONS:       60
 INTERPOLATION TYPE:            DIIS
 INTERPOLATION STEPS:              2 (START)      1 (STEP)
 LEVEL SHIFTS:                  0.00 (CLOSED)  0.00 (OPEN) 



 Orbital guess generated from atomic densities. Full valence occupancy:   14   5   5   0

 Molecular orbital dump at record        2100.2

 Initial alpha occupancy:  12   4   4   0
 Initial beta  occupancy:  12   4   4   0
 Wave function symmetry:    1

 ITERATION    DDIFF          GRAD             ENERGY        2-EL.EN.            DIPOLE MOMENTS         DIIS
    1      0.000D+00      0.000D+00      -693.79654919    800.696231    0.00000    0.00000   -3.73403    0
    2      0.000D+00      0.227D-01      -693.83636420    796.301775    0.00000    0.00000   -2.62308    1
    3      0.447D-01      0.148D-01      -693.86576678    796.940820    0.00000    0.00000   -3.10239    2
    4      0.181D-01      0.232D-02      -693.86655034    797.354666    0.00000    0.00000   -2.97409    3
    5      0.394D-02      0.102D-02      -693.86669326    797.217344    0.00000    0.00000   -2.99414    4
    6      0.167D-02      0.185D-03      -693.86670040    797.210749    0.00000    0.00000   -2.98715    5
    7      0.315D-03      0.523D-04      -693.86670101    797.210138    0.00000    0.00000   -2.98690    6
    8      0.146D-03      0.982D-05      -693.86670105    797.211087    0.00000    0.00000   -2.98688    7
    9      0.237D-04      0.337D-05      -693.86670105    797.210670    0.00000    0.00000   -2.98692    6
   10      0.832D-05      0.640D-06      -693.86670105    797.210779    0.00000    0.00000   -2.98692    0

 Final occupancy:  12   4   4   0

 !RHF STATE 1.1 Energy               -693.866701052708
 Nuclear energy                       127.33347428
 One-electron energy                -1219.80556471
 Two-electron energy                  398.60538937
 Virial quotient                       -0.99881915
 !RHF STATE 1.1 Dipole moment           0.00000000     0.00000000    -2.98691940
 Dipole moment /Debye                   0.00000000     0.00000000    -7.59149460

 ELECTRON ORBITALS
 =================


   Orb  Occ    Energy  Couls-En    Coefficients

                                   1 1s      1 1s      1 1s      1 2pz     1 2pz     1 3d0     1 3d2+    2 1s      2 1s      2 1s   
                                   2 2pz     2 2pz     2 3d0     2 3d2+    3 1s      3 1s      3 1s      3 2pz     3 2pz     3 3d0  
                                   3 3d2+    4 1s      4 1s      4 1s      4 1s      4 2pz     4 2pz     4 2pz     4 3d0     4 3d2+ 


   1.1   2  -118.3900 -284.4507  0.000018  0.000065 -0.000022 -0.000032 -0.000108  0.000001  0.000000 -0.000010 -0.000039  0.000129
                                 0.000000 -0.000027  0.000001  0.000000  0.000001  0.000005 -0.000038  0.000013 -0.000145  0.000001
                                 0.000000  1.000007  0.000050  0.000101 -0.000166 -0.000015  0.000035 -0.000110 -0.000027  0.000000

   2.1   2   -20.3029  -61.5816  0.000175  0.000100  0.000040 -0.000031 -0.003500 -0.001274  0.000000  0.000011  0.000065  0.002924
                                -0.000617 -0.000396  0.000143  0.000000  1.000979  0.004684 -0.006118  0.002997 -0.002949  0.000304
                                 0.000000  0.000006  0.000041  0.000084 -0.000248 -0.000005 -0.000034 -0.000064  0.000005  0.000000

   3.1   2   -15.2759  -46.2715 -0.000054 -0.000930  0.003386 -0.000504  0.003958 -0.001289  0.000000  1.001028  0.004674 -0.007615
                                -0.003725  0.004169  0.000581  0.000000 -0.000025 -0.000105  0.002115  0.000462 -0.000009  0.000085
                                 0.000000 -0.000010 -0.000068 -0.000162  0.000241 -0.000012 -0.000105  0.000173 -0.000033  0.000000

   4.1   2   -12.1062  -55.1852  0.000286  0.001040 -0.000425 -0.000576 -0.002191  0.000073  0.000000 -0.000219 -0.000818  0.002627
                                 0.000019 -0.000570  0.000008  0.000000  0.000072  0.000239 -0.001082  0.000170 -0.002322 -0.000088
                                 0.000000  0.000119  1.000840  0.001957 -0.002916 -0.001030  0.000323 -0.001695 -0.000346  0.000000

   5.1   2   -11.0833  -38.7601  1.001320  0.008143  0.000379 -0.002808 -0.000006  0.003221  0.000000 -0.000958 -0.001357 -0.000273
                                 0.000715  0.000885 -0.000171  0.000000 -0.000316  0.000503 -0.005058  0.000122 -0.004473 -0.000236
                                 0.000000  0.000071  0.000472  0.000947 -0.002010 -0.000030 -0.000265 -0.000782 -0.000355  0.000000

   6.1   2    -9.3548  -51.7177  0.000108  0.000411  0.000330 -0.000019  0.001080 -0.000037  0.000000  0.000145  0.000531 -0.001598
                                -0.000011  0.000418 -0.000026  0.000000 -0.000113 -0.000371  0.000531  0.000158 -0.000394  0.000193
                                 0.000000  0.000009  0.001027 -0.000327  0.000194  0.999982 -0.000074  0.000107 -0.000013  0.000000

   7.1   2    -1.2066  -17.5379 -0.014436  0.382422 -0.134846 -0.247864  0.107492  0.042678  0.000000 -0.005493  0.034202 -0.005541
                                -0.017122  0.000689  0.002955  0.000000 -0.015680  0.763561 -0.065251  0.133880 -0.062007  0.017800
                                 0.000000  0.000261  0.000407  0.299676 -0.017133 -0.001951  0.056086 -0.021454  0.005318  0.000000

   8.1   2    -1.0771  -18.5226  0.005295 -0.216465  0.076963  0.111925 -0.052279 -0.020599  0.000000  0.003042 -0.043441  0.009658
                                 0.018206 -0.003851 -0.002226  0.000000  0.004888 -0.218963  0.014428 -0.151286  0.047058 -0.005184
                                 0.000000 -0.000819 -0.005680  0.922539  0.017594  0.001395  0.009639 -0.010117 -0.000220  0.000000

   9.1   2    -0.8918  -14.0645  0.013324 -0.452304  0.141937 -0.394939  0.136919 -0.020708  0.000000  0.017780 -0.709757  0.106636
                                 0.232494 -0.075946 -0.019890  0.000000  0.000043  0.184907 -0.012364 -0.008736 -0.025646  0.000604
                                 0.000000  0.000559  0.003315 -0.069158 -0.019329 -0.001041  0.030852 -0.010773  0.001592  0.000000

  10.1   2    -0.5810  -16.5264  0.002203  0.340913 -0.137757 -0.332296  0.139361  0.021400  0.000000 -0.000632 -0.159588  0.014673
                                 0.004572 -0.019372  0.000242  0.000000  0.000611 -0.243924 -0.092863  0.586208 -0.057310  0.012054
                                 0.000000 -0.000977 -0.004202  0.158525  0.056901  0.006331 -0.532249  0.031288 -0.021659  0.000000

  11.1   2    -0.2987  -12.1131  0.003610  0.447965 -0.221499  0.224583 -0.134683 -0.013633  0.000000  0.005697 -0.460140 -0.097764
                                -0.581862 -0.040099  0.028681  0.000000  0.004153 -0.173005 -0.089624  0.079748  0.060476  0.008539
                                 0.000000  0.000422  0.004505  0.063296  0.009525  0.001507  0.394588  0.036330 -0.012452  0.000000

  12.1   2    -0.2419  -15.5883 -0.000461  0.082867 -0.002533 -0.384851  0.316311  0.011130  0.000000  0.003535  0.154437 -0.058174
                                 0.310814  0.035995 -0.013532  0.000000  0.000276 -0.306143 -0.137212  0.451501  0.080157  0.020906
                                 0.000000  0.001651  0.015764  0.185405  0.017758  0.004500  0.782087  0.095275 -0.043581  0.000000

                                   1 2px     1 2px     1 3d1+    2 2px     2 2px     2 3d1+    3 2px     3 2px     3 3d1+    4 2px  
                                   4 2px     4 2px     4 3d1+ 

   1.2   2    -9.3535  -51.6904  0.000060 -0.000023 -0.000065  0.000006  0.000015 -0.000019  0.000040 -0.000233 -0.000002  1.000018
                                 0.000394 -0.000193  0.000027

   2.2   2    -0.4176  -15.7083  0.210301 -0.032677 -0.020233  0.083941 -0.007900 -0.010025  0.403232  0.002955  0.008073 -0.002772
                                 0.805363  0.015978  0.007555

   3.2   2    -0.3466  -14.8304 -0.414783  0.054970  0.023737 -0.215202  0.008719  0.020245 -0.581198 -0.027225 -0.021924  0.000093
                                 0.553695  0.019099 -0.011924

   4.2   2    -0.1260  -12.2112  0.308284  0.020656  0.068561  0.643761  0.076196 -0.027931 -0.464238 -0.102509 -0.000819  0.001539
                                 0.116853  0.003015 -0.015202

                                   1 2py     1 2py     1 3d1-    2 2py     2 2py     2 3d1-    3 2py     3 2py     3 3d1-    4 2py  
                                   4 2py     4 2py     4 3d1- 

   1.3   2    -9.3535  -51.6904  0.000060 -0.000023 -0.000065  0.000006  0.000015 -0.000019  0.000040 -0.000233 -0.000002  1.000018
                                 0.000394 -0.000193  0.000027

   2.3   2    -0.4176  -15.7083  0.210301 -0.032677 -0.020233  0.083941 -0.007900 -0.010025  0.403232  0.002955  0.008073 -0.002772
                                 0.805363  0.015978  0.007555

   3.3   2    -0.3466  -14.8304 -0.414783  0.054970  0.023737 -0.215202  0.008719  0.020245 -0.581198 -0.027225 -0.021924  0.000093
                                 0.553695  0.019099 -0.011924

   4.3   2    -0.1260  -12.2112  0.308284  0.020656  0.068561  0.643761  0.076196 -0.027931 -0.464238 -0.102509 -0.000819  0.001539
                                 0.116853  0.003015 -0.015202


 **********************************************************************************************************************************
 DATASETS  * FILE   NREC   LENGTH (MB)   RECORD NAMES
              1      19        4.47       500      610      700      900      950      970     1000      129      960     1100   
                                          VAR    BASINP    GEOM    SYMINP    ZMAT    AOBASIS   BASIS     P2S    ABASIS      S 
                                         1400     1410     1200     1210     1080     1600     1650     1300     1700   
                                           T        V       H0       H01     AOSYM     SMH    MOLCAS    ERIS     OPER   

              2       3        0.36       700     1000     2100   
                                         GEOM     BASIS     RHF  

 PROGRAMS   *        TOTAL        HF       INT
 CPU TIMES  *         0.30      0.03      0.23
 REAL TIME  *         0.56 SEC
 DISK USED  *        15.84 MB      
 GA USED    *         0.00 MB       (max)       0.00 MB       (current)
 **********************************************************************************************************************************
 SETTING BASIS          =    AUG-CC-PVQZ
 SETTING CHARGE         =         0.00000000                                  


 Recomputing integrals since basis changed


 Using spherical harmonics

 Library entry C      S aug-cc-pVQZ          selected for orbital group  1
 Library entry C      P aug-cc-pVQZ          selected for orbital group  1
 Library entry C      D aug-cc-pVQZ          selected for orbital group  1
 Library entry C      F aug-cc-pVQZ          selected for orbital group  1
 Library entry C      G aug-cc-pVQZ          selected for orbital group  1
 Library entry N      S aug-cc-pVQZ          selected for orbital group  2
 Library entry N      P aug-cc-pVQZ          selected for orbital group  2
 Library entry N      D aug-cc-pVQZ          selected for orbital group  2
 Library entry N      F aug-cc-pVQZ          selected for orbital group  2
 Library entry N      G aug-cc-pVQZ          selected for orbital group  2
 Library entry O      S aug-cc-pVQZ          selected for orbital group  3
 Library entry O      P aug-cc-pVQZ          selected for orbital group  3
 Library entry O      D aug-cc-pVQZ          selected for orbital group  3
 Library entry O      F aug-cc-pVQZ          selected for orbital group  3
 Library entry O      G aug-cc-pVQZ          selected for orbital group  3
 Library entry AR     S aug-cc-pVQZ          selected for orbital group  4
 Library entry AR     P aug-cc-pVQZ          selected for orbital group  4
 Library entry AR     D aug-cc-pVQZ          selected for orbital group  4
 Library entry AR     F aug-cc-pVQZ          selected for orbital group  4
 Library entry AR     G aug-cc-pVQZ          selected for orbital group  4

1PROGRAM * SEWARD (Integral evaluation for generally contracted gaussian basis sets)     Author: Roland Lindh, 1990

 Geometry written to block  1 of record 700

 Orientation using atomic masses  
 Molecule type: Linear
 Symmetry elements: X,Y
 Rotational constants:       2.2203518      2.2203518      0.0000000 GHz  (calculated with average atomic masses)

 Point group  C2v 



 ATOMIC COORDINATES

 NR  ATOM    CHARGE       X              Y              Z

   1  C       6.00    0.000000000    0.000000000    2.832763168
   2  N       7.00    0.000000000    0.000000000    5.160888754
   3  O       8.00    0.000000000    0.000000000    0.611475138
   4  AR     18.00    0.000000000    0.000000000   -2.906142341

 Bond lengths in Bohr (Angstrom)

 1-2  2.328125586  1-3  2.221288030  3-4  3.517617479
     (1.231991000)     (1.175455000)     (1.861443000)

 Bond angles

  1-3-4  180.00000000   2-1-3  180.00000000


 BASIS DATA

   Nr Sym  Nuc  Type         Exponents   Contraction coefficients

   1.1 A1    1  1s        33980.000000     0.000091   -0.000019    0.000000    0.000000    0.000000
   2.1 A1                  5089.000000     0.000704   -0.000151    0.000000    0.000000    0.000000
   3.1 A1                  1157.000000     0.003693   -0.000785    0.000000    0.000000    0.000000
   4.1 A1                   326.600000     0.015360   -0.003324    0.000000    0.000000    0.000000
   5.1 A1                   106.100000     0.052929   -0.011512    0.000000    0.000000    0.000000
                             38.110000     0.147043   -0.034160    0.000000    0.000000    0.000000
                             14.750000     0.305631   -0.077173    0.000000    0.000000    0.000000
                              6.035000     0.399345   -0.141493    0.000000    0.000000    0.000000
                              2.530000     0.217051   -0.118019    0.000000    0.000000    0.000000
                              0.735500     0.015894    0.273806    1.000000    0.000000    0.000000
                              0.290500    -0.003084    0.586510    0.000000    1.000000    0.000000
                              0.111100     0.000978    0.285430    0.000000    0.000000    1.000000
   6.1 A1    1  1s            0.041450     1.000000
   7.1 A1    1  2pz          34.510000     0.005378    0.000000    0.000000    0.000000
   8.1 A1                     7.915000     0.036132    0.000000    0.000000    0.000000
   9.1 A1                     2.368000     0.142493    0.000000    0.000000    0.000000
  10.1 A1                     0.813200     0.342150    1.000000    0.000000    0.000000
                              0.289000     0.463864    0.000000    1.000000    0.000000
                              0.100700     0.250028    0.000000    0.000000    1.000000
  11.1 A1    1  2pz           0.032180     1.000000
  12.1 A1    1  3d0           1.848000     1.000000
  13.1 A1    1  3d2+          1.848000     1.000000
  14.1 A1    1  3d0           0.649000     1.000000
  15.1 A1    1  3d2+          0.649000     1.000000
  16.1 A1    1  3d0           0.228000     1.000000
  17.1 A1    1  3d2+          0.228000     1.000000
  18.1 A1    1  3d0           0.076600     1.000000
  19.1 A1    1  3d2+          0.076600     1.000000
  20.1 A1    1  4f0           1.419000     1.000000
  21.1 A1    1  4f2+          1.419000     1.000000
  22.1 A1    1  4f0           0.485000     1.000000
  23.1 A1    1  4f2+          0.485000     1.000000
  24.1 A1    1  4f0           0.187000     1.000000
  25.1 A1    1  4f2+          0.187000     1.000000
  26.1 A1    1  5g0           1.011000     1.000000
  27.1 A1    1  5g4+          1.011000     1.000000
  28.1 A1    1  5g2+          1.011000     1.000000
  29.1 A1    1  5g0           0.424000     1.000000
  30.1 A1    1  5g4+          0.424000     1.000000
  31.1 A1    1  5g2+          0.424000     1.000000
  32.1 A1    2  1s        45840.000000     0.000092   -0.000020    0.000000    0.000000    0.000000
  33.1 A1                  6868.000000     0.000717   -0.000159    0.000000    0.000000    0.000000
  34.1 A1                  1563.000000     0.003749   -0.000824    0.000000    0.000000    0.000000
  35.1 A1                   442.400000     0.015532   -0.003478    0.000000    0.000000    0.000000
  36.1 A1                   144.300000     0.053146   -0.011966    0.000000    0.000000    0.000000
                             52.180000     0.146787   -0.035388    0.000000    0.000000    0.000000
                             20.340000     0.304663   -0.080077    0.000000    0.000000    0.000000
                              8.381000     0.397684   -0.146722    0.000000    0.000000    0.000000
                              3.529000     0.217641   -0.116360    0.000000    0.000000    0.000000
                              1.054000     0.016963    0.279919    1.000000    0.000000    0.000000
                              0.411800    -0.002745    0.585481    0.000000    1.000000    0.000000
                              0.155200     0.000953    0.284028    0.000000    0.000000    1.000000
  37.1 A1    2  1s            0.054640     1.000000
  38.1 A1    2  2pz          49.330000     0.005533    0.000000    0.000000    0.000000
  39.1 A1                    11.370000     0.037962    0.000000    0.000000    0.000000
  40.1 A1                     3.435000     0.149028    0.000000    0.000000    0.000000
  41.1 A1                     1.182000     0.348922    1.000000    0.000000    0.000000
                              0.417300     0.458972    0.000000    1.000000    0.000000
                              0.142800     0.244923    0.000000    0.000000    1.000000
  42.1 A1    2  2pz           0.044020     1.000000
  43.1 A1    2  3d0           2.837000     1.000000
  44.1 A1    2  3d2+          2.837000     1.000000
  45.1 A1    2  3d0           0.968000     1.000000
  46.1 A1    2  3d2+          0.968000     1.000000
  47.1 A1    2  3d0           0.335000     1.000000
  48.1 A1    2  3d2+          0.335000     1.000000
  49.1 A1    2  3d0           0.111000     1.000000
  50.1 A1    2  3d2+          0.111000     1.000000
  51.1 A1    2  4f0           2.027000     1.000000
  52.1 A1    2  4f2+          2.027000     1.000000
  53.1 A1    2  4f0           0.685000     1.000000
  54.1 A1    2  4f2+          0.685000     1.000000
  55.1 A1    2  4f0           0.245000     1.000000
  56.1 A1    2  4f2+          0.245000     1.000000
  57.1 A1    2  5g0           1.427000     1.000000
  58.1 A1    2  5g4+          1.427000     1.000000
  59.1 A1    2  5g2+          1.427000     1.000000
  60.1 A1    2  5g0           0.559000     1.000000
  61.1 A1    2  5g4+          0.559000     1.000000
  62.1 A1    2  5g2+          0.559000     1.000000
  63.1 A1    3  1s        61420.000000     0.000090   -0.000020    0.000000    0.000000    0.000000
  64.1 A1                  9199.000000     0.000698   -0.000159    0.000000    0.000000    0.000000
  65.1 A1                  2091.000000     0.003664   -0.000829    0.000000    0.000000    0.000000
  66.1 A1                   590.900000     0.015218   -0.003508    0.000000    0.000000    0.000000
  67.1 A1                   192.300000     0.052423   -0.012156    0.000000    0.000000    0.000000
                             69.320000     0.145921   -0.036261    0.000000    0.000000    0.000000
                             26.970000     0.305258   -0.082992    0.000000    0.000000    0.000000
                             11.100000     0.398508   -0.152090    0.000000    0.000000    0.000000
                              4.682000     0.216980   -0.115331    0.000000    0.000000    0.000000
                              1.428000     0.017594    0.288979    1.000000    0.000000    0.000000
                              0.554700    -0.002502    0.586128    0.000000    1.000000    0.000000
                              0.206700     0.000954    0.277624    0.000000    0.000000    1.000000
  68.1 A1    3  1s            0.069590     1.000000
  69.1 A1    3  2pz          63.420000     0.006044    0.000000    0.000000    0.000000
  70.1 A1                    14.660000     0.041799    0.000000    0.000000    0.000000
  71.1 A1                     4.459000     0.161143    0.000000    0.000000    0.000000
  72.1 A1                     1.531000     0.356731    1.000000    0.000000    0.000000
                              0.530200     0.448309    0.000000    1.000000    0.000000
                              0.175000     0.244940    0.000000    0.000000    1.000000
  73.1 A1    3  2pz           0.053480     1.000000
  74.1 A1    3  3d0           3.775000     1.000000
  75.1 A1    3  3d2+          3.775000     1.000000
  76.1 A1    3  3d0           1.300000     1.000000
  77.1 A1    3  3d2+          1.300000     1.000000
  78.1 A1    3  3d0           0.444000     1.000000
  79.1 A1    3  3d2+          0.444000     1.000000
  80.1 A1    3  3d0           0.154000     1.000000
  81.1 A1    3  3d2+          0.154000     1.000000
  82.1 A1    3  4f0           2.666000     1.000000
  83.1 A1    3  4f2+          2.666000     1.000000
  84.1 A1    3  4f0           0.859000     1.000000
  85.1 A1    3  4f2+          0.859000     1.000000
  86.1 A1    3  4f0           0.324000     1.000000
  87.1 A1    3  4f2+          0.324000     1.000000
  88.1 A1    3  5g0           1.846000     1.000000
  89.1 A1    3  5g4+          1.846000     1.000000
  90.1 A1    3  5g2+          1.846000     1.000000
  91.1 A1    3  5g0           0.714000     1.000000
  92.1 A1    3  5g4+          0.714000     1.000000
  93.1 A1    3  5g2+          0.714000     1.000000
  94.1 A1    4  1s       950600.000000     0.000023   -0.000006    0.000002    0.000000    0.000000    0.000000
  95.1 A1                142300.000000     0.000177   -0.000050    0.000016    0.000000    0.000000    0.000000
  96.1 A1                 32360.000000     0.000931   -0.000265    0.000083    0.000000    0.000000    0.000000
  97.1 A1                  9145.000000     0.003929   -0.001119    0.000349    0.000000    0.000000    0.000000
  98.1 A1                  2970.000000     0.014206   -0.004083    0.001280    0.000000    0.000000    0.000000
  99.1 A1                  1064.000000     0.044811   -0.013122    0.004104    0.000000    0.000000    0.000000
                            410.800000     0.121001   -0.037285    0.011779    0.000000    0.000000    0.000000
                            168.000000     0.260579   -0.089471    0.028387    0.000000    0.000000    0.000000
                             71.990000     0.381364   -0.168054    0.055241    0.000000    0.000000    0.000000
                             31.670000     0.276058   -0.179594    0.060749    0.000000    0.000000    0.000000
                             12.890000     0.050518    0.102953   -0.036201    0.000000    0.000000    0.000000
                              5.929000    -0.003599    0.562630   -0.275398    0.000000    0.000000    0.000000
                              2.678000     0.002188    0.450355   -0.362845    0.000000    0.000000    0.000000
                              0.941600    -0.000862    0.046061    0.273118    1.000000    0.000000    0.000000
                              0.423900     0.000405   -0.006037    0.682899    0.000000    1.000000    0.000000
                              0.171400    -0.000116    0.001887    0.283417    0.000000    0.000000    1.000000
 100.1 A1    4  1s            0.061000     1.000000
 101.1 A1    4  2pz        1890.000000     0.000496   -0.000139    0.000000    0.000000    0.000000
 102.1 A1                   447.800000     0.004252   -0.001189    0.000000    0.000000    0.000000
 103.1 A1                   144.600000     0.022328   -0.006326    0.000000    0.000000    0.000000
 104.1 A1                    54.460000     0.083088   -0.023881    0.000000    0.000000    0.000000
 105.1 A1                    22.510000     0.217110   -0.064924    0.000000    0.000000    0.000000
                              9.774000     0.374507   -0.115444    0.000000    0.000000    0.000000
                              4.368000     0.366445   -0.123651    0.000000    0.000000    0.000000
                              1.959000     0.129245    0.064906    0.000000    0.000000    0.000000
                              0.826000     0.006922    0.403633    1.000000    0.000000    0.000000
                              0.329700     0.000836    0.490592    0.000000    1.000000    0.000000
                              0.124200    -0.000153    0.208528    0.000000    0.000000    1.000000
 106.1 A1    4  2pz           0.043500     1.000000
 107.1 A1    4  3d0           0.311000     1.000000
 108.1 A1    4  3d2+          0.311000     1.000000
 109.1 A1    4  3d0           0.763000     1.000000
 110.1 A1    4  3d2+          0.763000     1.000000
 111.1 A1    4  3d0           1.873000     1.000000
 112.1 A1    4  3d2+          1.873000     1.000000
 113.1 A1    4  3d0           0.116000     1.000000
 114.1 A1    4  3d2+          0.116000     1.000000
 115.1 A1    4  4f0           0.543000     1.000000
 116.1 A1    4  4f2+          0.543000     1.000000
 117.1 A1    4  4f0           1.325000     1.000000
 118.1 A1    4  4f2+          1.325000     1.000000
 119.1 A1    4  4f0           0.294000     1.000000
 120.1 A1    4  4f2+          0.294000     1.000000
 121.1 A1    4  5g0           1.007000     1.000000
 122.1 A1    4  5g4+          1.007000     1.000000
 123.1 A1    4  5g2+          1.007000     1.000000
 124.1 A1    4  5g0           0.459000     1.000000
 125.1 A1    4  5g4+          0.459000     1.000000
 126.1 A1    4  5g2+          0.459000     1.000000
   1.2 B1    1  2px          34.510000     0.005378    0.000000    0.000000    0.000000
   2.2 B1                     7.915000     0.036132    0.000000    0.000000    0.000000
   3.2 B1                     2.368000     0.142493    0.000000    0.000000    0.000000
   4.2 B1                     0.813200     0.342150    1.000000    0.000000    0.000000
                              0.289000     0.463864    0.000000    1.000000    0.000000
                              0.100700     0.250028    0.000000    0.000000    1.000000
   5.2 B1    1  2px           0.032180     1.000000
   6.2 B1    1  3d1+          1.848000     1.000000
   7.2 B1    1  3d1+          0.649000     1.000000
   8.2 B1    1  3d1+          0.228000     1.000000
   9.2 B1    1  3d1+          0.076600     1.000000
  10.2 B1    1  4f1+          1.419000     1.000000
  11.2 B1    1  4f3+          1.419000     1.000000
  12.2 B1    1  4f1+          0.485000     1.000000
  13.2 B1    1  4f3+          0.485000     1.000000
  14.2 B1    1  4f1+          0.187000     1.000000
  15.2 B1    1  4f3+          0.187000     1.000000
  16.2 B1    1  5g1+          1.011000     1.000000
  17.2 B1    1  5g3+          1.011000     1.000000
  18.2 B1    1  5g1+          0.424000     1.000000
  19.2 B1    1  5g3+          0.424000     1.000000
  20.2 B1    2  2px          49.330000     0.005533    0.000000    0.000000    0.000000
  21.2 B1                    11.370000     0.037962    0.000000    0.000000    0.000000
  22.2 B1                     3.435000     0.149028    0.000000    0.000000    0.000000
  23.2 B1                     1.182000     0.348922    1.000000    0.000000    0.000000
                              0.417300     0.458972    0.000000    1.000000    0.000000
                              0.142800     0.244923    0.000000    0.000000    1.000000
  24.2 B1    2  2px           0.044020     1.000000
  25.2 B1    2  3d1+          2.837000     1.000000
  26.2 B1    2  3d1+          0.968000     1.000000
  27.2 B1    2  3d1+          0.335000     1.000000
  28.2 B1    2  3d1+          0.111000     1.000000
  29.2 B1    2  4f1+          2.027000     1.000000
  30.2 B1    2  4f3+          2.027000     1.000000
  31.2 B1    2  4f1+          0.685000     1.000000
  32.2 B1    2  4f3+          0.685000     1.000000
  33.2 B1    2  4f1+          0.245000     1.000000
  34.2 B1    2  4f3+          0.245000     1.000000
  35.2 B1    2  5g1+          1.427000     1.000000
  36.2 B1    2  5g3+          1.427000     1.000000
  37.2 B1    2  5g1+          0.559000     1.000000
  38.2 B1    2  5g3+          0.559000     1.000000
  39.2 B1    3  2px          63.420000     0.006044    0.000000    0.000000    0.000000
  40.2 B1                    14.660000     0.041799    0.000000    0.000000    0.000000
  41.2 B1                     4.459000     0.161143    0.000000    0.000000    0.000000
  42.2 B1                     1.531000     0.356731    1.000000    0.000000    0.000000
                              0.530200     0.448309    0.000000    1.000000    0.000000
                              0.175000     0.244940    0.000000    0.000000    1.000000
  43.2 B1    3  2px           0.053480     1.000000
  44.2 B1    3  3d1+          3.775000     1.000000
  45.2 B1    3  3d1+          1.300000     1.000000
  46.2 B1    3  3d1+          0.444000     1.000000
  47.2 B1    3  3d1+          0.154000     1.000000
  48.2 B1    3  4f1+          2.666000     1.000000
  49.2 B1    3  4f3+          2.666000     1.000000
  50.2 B1    3  4f1+          0.859000     1.000000
  51.2 B1    3  4f3+          0.859000     1.000000
  52.2 B1    3  4f1+          0.324000     1.000000
  53.2 B1    3  4f3+          0.324000     1.000000
  54.2 B1    3  5g1+          1.846000     1.000000
  55.2 B1    3  5g3+          1.846000     1.000000
  56.2 B1    3  5g1+          0.714000     1.000000
  57.2 B1    3  5g3+          0.714000     1.000000
  58.2 B1    4  2px        1890.000000     0.000496   -0.000139    0.000000    0.000000    0.000000
  59.2 B1                   447.800000     0.004252   -0.001189    0.000000    0.000000    0.000000
  60.2 B1                   144.600000     0.022328   -0.006326    0.000000    0.000000    0.000000
  61.2 B1                    54.460000     0.083088   -0.023881    0.000000    0.000000    0.000000
  62.2 B1                    22.510000     0.217110   -0.064924    0.000000    0.000000    0.000000
                              9.774000     0.374507   -0.115444    0.000000    0.000000    0.000000
                              4.368000     0.366445   -0.123651    0.000000    0.000000    0.000000
                              1.959000     0.129245    0.064906    0.000000    0.000000    0.000000
                              0.826000     0.006922    0.403633    1.000000    0.000000    0.000000
                              0.329700     0.000836    0.490592    0.000000    1.000000    0.000000
                              0.124200    -0.000153    0.208528    0.000000    0.000000    1.000000
  63.2 B1    4  2px           0.043500     1.000000
  64.2 B1    4  3d1+          0.311000     1.000000
  65.2 B1    4  3d1+          0.763000     1.000000
  66.2 B1    4  3d1+          1.873000     1.000000
  67.2 B1    4  3d1+          0.116000     1.000000
  68.2 B1    4  4f1+          0.543000     1.000000
  69.2 B1    4  4f3+          0.543000     1.000000
  70.2 B1    4  4f1+          1.325000     1.000000
  71.2 B1    4  4f3+          1.325000     1.000000
  72.2 B1    4  4f1+          0.294000     1.000000
  73.2 B1    4  4f3+          0.294000     1.000000
  74.2 B1    4  5g1+          1.007000     1.000000
  75.2 B1    4  5g3+          1.007000     1.000000
  76.2 B1    4  5g1+          0.459000     1.000000
  77.2 B1    4  5g3+          0.459000     1.000000
   1.3 B2    1  2py          34.510000     0.005378    0.000000    0.000000    0.000000
   2.3 B2                     7.915000     0.036132    0.000000    0.000000    0.000000
   3.3 B2                     2.368000     0.142493    0.000000    0.000000    0.000000
   4.3 B2                     0.813200     0.342150    1.000000    0.000000    0.000000
                              0.289000     0.463864    0.000000    1.000000    0.000000
                              0.100700     0.250028    0.000000    0.000000    1.000000
   5.3 B2    1  2py           0.032180     1.000000
   6.3 B2    1  3d1-          1.848000     1.000000
   7.3 B2    1  3d1-          0.649000     1.000000
   8.3 B2    1  3d1-          0.228000     1.000000
   9.3 B2    1  3d1-          0.076600     1.000000
  10.3 B2    1  4f1-          1.419000     1.000000
  11.3 B2    1  4f3-          1.419000     1.000000
  12.3 B2    1  4f1-          0.485000     1.000000
  13.3 B2    1  4f3-          0.485000     1.000000
  14.3 B2    1  4f1-          0.187000     1.000000
  15.3 B2    1  4f3-          0.187000     1.000000
  16.3 B2    1  5g1-          1.011000     1.000000
  17.3 B2    1  5g3-          1.011000     1.000000
  18.3 B2    1  5g1-          0.424000     1.000000
  19.3 B2    1  5g3-          0.424000     1.000000
  20.3 B2    2  2py          49.330000     0.005533    0.000000    0.000000    0.000000
  21.3 B2                    11.370000     0.037962    0.000000    0.000000    0.000000
  22.3 B2                     3.435000     0.149028    0.000000    0.000000    0.000000
  23.3 B2                     1.182000     0.348922    1.000000    0.000000    0.000000
                              0.417300     0.458972    0.000000    1.000000    0.000000
                              0.142800     0.244923    0.000000    0.000000    1.000000
  24.3 B2    2  2py           0.044020     1.000000
  25.3 B2    2  3d1-          2.837000     1.000000
  26.3 B2    2  3d1-          0.968000     1.000000
  27.3 B2    2  3d1-          0.335000     1.000000
  28.3 B2    2  3d1-          0.111000     1.000000
  29.3 B2    2  4f1-          2.027000     1.000000
  30.3 B2    2  4f3-          2.027000     1.000000
  31.3 B2    2  4f1-          0.685000     1.000000
  32.3 B2    2  4f3-          0.685000     1.000000
  33.3 B2    2  4f1-          0.245000     1.000000
  34.3 B2    2  4f3-          0.245000     1.000000
  35.3 B2    2  5g1-          1.427000     1.000000
  36.3 B2    2  5g3-          1.427000     1.000000
  37.3 B2    2  5g1-          0.559000     1.000000
  38.3 B2    2  5g3-          0.559000     1.000000
  39.3 B2    3  2py          63.420000     0.006044    0.000000    0.000000    0.000000
  40.3 B2                    14.660000     0.041799    0.000000    0.000000    0.000000
  41.3 B2                     4.459000     0.161143    0.000000    0.000000    0.000000
  42.3 B2                     1.531000     0.356731    1.000000    0.000000    0.000000
                              0.530200     0.448309    0.000000    1.000000    0.000000
                              0.175000     0.244940    0.000000    0.000000    1.000000
  43.3 B2    3  2py           0.053480     1.000000
  44.3 B2    3  3d1-          3.775000     1.000000
  45.3 B2    3  3d1-          1.300000     1.000000
  46.3 B2    3  3d1-          0.444000     1.000000
  47.3 B2    3  3d1-          0.154000     1.000000
  48.3 B2    3  4f1-          2.666000     1.000000
  49.3 B2    3  4f3-          2.666000     1.000000
  50.3 B2    3  4f1-          0.859000     1.000000
  51.3 B2    3  4f3-          0.859000     1.000000
  52.3 B2    3  4f1-          0.324000     1.000000
  53.3 B2    3  4f3-          0.324000     1.000000
  54.3 B2    3  5g1-          1.846000     1.000000
  55.3 B2    3  5g3-          1.846000     1.000000
  56.3 B2    3  5g1-          0.714000     1.000000
  57.3 B2    3  5g3-          0.714000     1.000000
  58.3 B2    4  2py        1890.000000     0.000496   -0.000139    0.000000    0.000000    0.000000
  59.3 B2                   447.800000     0.004252   -0.001189    0.000000    0.000000    0.000000
  60.3 B2                   144.600000     0.022328   -0.006326    0.000000    0.000000    0.000000
  61.3 B2                    54.460000     0.083088   -0.023881    0.000000    0.000000    0.000000
  62.3 B2                    22.510000     0.217110   -0.064924    0.000000    0.000000    0.000000
                              9.774000     0.374507   -0.115444    0.000000    0.000000    0.000000
                              4.368000     0.366445   -0.123651    0.000000    0.000000    0.000000
                              1.959000     0.129245    0.064906    0.000000    0.000000    0.000000
                              0.826000     0.006922    0.403633    1.000000    0.000000    0.000000
                              0.329700     0.000836    0.490592    0.000000    1.000000    0.000000
                              0.124200    -0.000153    0.208528    0.000000    0.000000    1.000000
  63.3 B2    4  2py           0.043500     1.000000
  64.3 B2    4  3d1-          0.311000     1.000000
  65.3 B2    4  3d1-          0.763000     1.000000
  66.3 B2    4  3d1-          1.873000     1.000000
  67.3 B2    4  3d1-          0.116000     1.000000
  68.3 B2    4  4f1-          0.543000     1.000000
  69.3 B2    4  4f3-          0.543000     1.000000
  70.3 B2    4  4f1-          1.325000     1.000000
  71.3 B2    4  4f3-          1.325000     1.000000
  72.3 B2    4  4f1-          0.294000     1.000000
  73.3 B2    4  4f3-          0.294000     1.000000
  74.3 B2    4  5g1-          1.007000     1.000000
  75.3 B2    4  5g3-          1.007000     1.000000
  76.3 B2    4  5g1-          0.459000     1.000000
  77.3 B2    4  5g3-          0.459000     1.000000
   1.4 A2    1  3d2-          1.848000     1.000000
   2.4 A2    1  3d2-          0.649000     1.000000
   3.4 A2    1  3d2-          0.228000     1.000000
   4.4 A2    1  3d2-          0.076600     1.000000
   5.4 A2    1  4f2-          1.419000     1.000000
   6.4 A2    1  4f2-          0.485000     1.000000
   7.4 A2    1  4f2-          0.187000     1.000000
   8.4 A2    1  5g2-          1.011000     1.000000
   9.4 A2    1  5g4-          1.011000     1.000000
  10.4 A2    1  5g2-          0.424000     1.000000
  11.4 A2    1  5g4-          0.424000     1.000000
  12.4 A2    2  3d2-          2.837000     1.000000
  13.4 A2    2  3d2-          0.968000     1.000000
  14.4 A2    2  3d2-          0.335000     1.000000
  15.4 A2    2  3d2-          0.111000     1.000000
  16.4 A2    2  4f2-          2.027000     1.000000
  17.4 A2    2  4f2-          0.685000     1.000000
  18.4 A2    2  4f2-          0.245000     1.000000
  19.4 A2    2  5g2-          1.427000     1.000000
  20.4 A2    2  5g4-          1.427000     1.000000
  21.4 A2    2  5g2-          0.559000     1.000000
  22.4 A2    2  5g4-          0.559000     1.000000
  23.4 A2    3  3d2-          3.775000     1.000000
  24.4 A2    3  3d2-          1.300000     1.000000
  25.4 A2    3  3d2-          0.444000     1.000000
  26.4 A2    3  3d2-          0.154000     1.000000
  27.4 A2    3  4f2-          2.666000     1.000000
  28.4 A2    3  4f2-          0.859000     1.000000
  29.4 A2    3  4f2-          0.324000     1.000000
  30.4 A2    3  5g2-          1.846000     1.000000
  31.4 A2    3  5g4-          1.846000     1.000000
  32.4 A2    3  5g2-          0.714000     1.000000
  33.4 A2    3  5g4-          0.714000     1.000000
  34.4 A2    4  3d2-          0.311000     1.000000
  35.4 A2    4  3d2-          0.763000     1.000000
  36.4 A2    4  3d2-          1.873000     1.000000
  37.4 A2    4  3d2-          0.116000     1.000000
  38.4 A2    4  4f2-          0.543000     1.000000
  39.4 A2    4  4f2-          1.325000     1.000000
  40.4 A2    4  4f2-          0.294000     1.000000
  41.4 A2    4  5g2-          1.007000     1.000000
  42.4 A2    4  5g4-          1.007000     1.000000
  43.4 A2    4  5g2-          0.459000     1.000000
  44.4 A2    4  5g4-          0.459000     1.000000

 NUCLEAR CHARGE:                   39
 NUMBER OF PRIMITIVE AOS:         491
 NUMBER OF SYMMETRY AOS:          391
 NUMBER OF CONTRACTIONS:          324   ( 126A1  +  77B1  +  77B2  +  44A2  )
 NUMBER OF CORE ORBITALS:           8   (   6A1  +   1B1  +   1B2  +   0A2  )
 NUMBER OF VALENCE ORBITALS:       16   (   8A1  +   4B1  +   4B2  +   0A2  )


 NUCLEAR REPULSION ENERGY  127.33347428

 EXTRA SYMMETRY OF AOS IN SYMMETRY 1:   1 1 1 1 1 1 1 1 1 1   1 1 2 1 2 1 2 1 2 1   2 1 2 1 2 1 3 2 1 3   2 1 1 1 1 1 1 1 1 1
                                        1 1 1 2 1 2 1 2 1 2   1 2 1 2 1 2 1 3 2 1   3 2 1 1 1 1 1 1 1 1   1 1 1 1 2 1 2 1 2 1
                                        2 1 2 1 2 1 2 1 3 2   1 3 2 1 1 1 1 1 1 1   1 1 1 1 1 1 1 2 1 2   1 2 1 2 1 2 1 2 1 2
                                        1 3 2 1 3 2
 EXTRA SYMMETRY OF AOS IN SYMMETRY 2:   1 1 1 1 1 1 1 1 1 1   2 1 2 1 2 1 2 1 2 1   1 1 1 1 1 1 1 1 1 2   1 2 1 2 1 2 1 2 1 1
                                        1 1 1 1 1 1 1 1 2 1   2 1 2 1 2 1 2 1 1 1   1 1 1 1 1 1 1 1 2 1   2 1 2 1 2 1 2
 EXTRA SYMMETRY OF AOS IN SYMMETRY 3:   1 1 1 1 1 1 1 1 1 1   2 1 2 1 2 1 2 1 2 1   1 1 1 1 1 1 1 1 1 2   1 2 1 2 1 2 1 2 1 1
                                        1 1 1 1 1 1 1 1 2 1   2 1 2 1 2 1 2 1 1 1   1 1 1 1 1 1 1 1 2 1   2 1 2 1 2 1 2
 EXTRA SYMMETRY OF AOS IN SYMMETRY 4:   1 1 1 1 1 1 1 1 2 1   2 1 1 1 1 1 1 1 1 2   1 2 1 1 1 1 1 1 1 1   2 1 2 1 1 1 1 1 1 1
                                        1 2 1 2

 Eigenvalues of metric

         1 0.256E-04 0.365E-04 0.767E-04 0.944E-04 0.183E-03 0.187E-03 0.258E-03 0.314E-03
         2 0.299E-03 0.514E-03 0.609E-03 0.126E-02 0.218E-02 0.336E-02 0.545E-02 0.655E-02
         3 0.299E-03 0.514E-03 0.609E-03 0.126E-02 0.218E-02 0.336E-02 0.545E-02 0.655E-02
         4 0.467E-02 0.848E-02 0.245E-01 0.369E-01 0.551E-01 0.709E-01 0.809E-01 0.128E+00


 Contracted 2-electron integrals neglected if value below      1.0D-12
 AO integral compression algorithm  1   Integral accuracy      1.0D-12

     1269.301 MB (compressed) written to integral file ( 38.7%)

     Node minimum: 1269.301 MB, node maximum: 1269.301 MB


 NUMBER OF SORTED TWO-ELECTRON INTEGRALS:  352951521.     BUFFER LENGTH:  32768
 NUMBER OF SEGMENTS:  12  SEGMENT LENGTH:   31999275      RECORD LENGTH: 524288

 Memory used in sort:      32.56 MW

 SORT1 READ   410395644. AND WROTE   245464441. INTEGRALS IN    709 RECORDS. CPU TIME:     6.71 SEC, REAL TIME:    14.28 SEC
 SORT2 READ   245464441. AND WROTE   352951521. INTEGRALS IN   4842 RECORDS. CPU TIME:     4.26 SEC, REAL TIME:    11.29 SEC

 FILE SIZES:   FILE 1:  1150.6 MBYTE,  FILE 4:  2973.8 MBYTE,   TOTAL:   4124.4 MBYTE

 OPERATOR DM      FOR CENTER  0  COORDINATES:    0.000000    0.000000    0.000000


 **********************************************************************************************************************************
 DATASETS  * FILE   NREC   LENGTH (MB)   RECORD NAMES
              1      19     1150.89       500      610      700      900      950      970     1001      129      960     1100   
                                          VAR    BASINP    GEOM    SYMINP    ZMAT    AOBASIS   BASIS     P2S    ABASIS      S 
                                         1400     1410     1200     1210     1080     1600     1650     1300     1700   
                                           T        V       H0       H01     AOSYM     SMH    MOLCAS    ERIS     OPER   

              2       4        0.45       700     1000     2100     1001   
                                         GEOM     BASIS     RHF     BASIS   

 PROGRAMS   *        TOTAL       INT        HF       INT
 CPU TIMES  *        58.02     57.72      0.03      0.23
 REAL TIME  *        73.69 SEC
 DISK USED  *         5.39 GB      
 GA USED    *         0.00 MB       (max)       0.00 MB       (current)
 **********************************************************************************************************************************

1PROGRAM * RHF-SCF (OPEN SHELL)       Authors: W. Meyer, H.-J. Werner


 NUMBER OF ELECTRONS:      20+   19-    SPACE SYMMETRY=3    SPIN SYMMETRY=Doublet 
 CONVERGENCE THRESHOLDS:    1.00E-05 (Density)    1.00E-07 (Energy)
 MAX. NUMBER OF ITERATIONS:       60
 INTERPOLATION TYPE:            DIIS
 INTERPOLATION STEPS:              2 (START)      1 (STEP)
 LEVEL SHIFTS:                 -0.30 (CLOSED)  0.00 (OPEN) 


 Singly occupied orbitals:      4.3
 Molecular orbitals read from record     2100.2  Type=RHF/CANONICAL (state 1.1)
 
 Present basis size:     126  77  77  44
 Previous basis size:     30  13  13   4
 Previous occupation:     12   4   4   0
 Previous closed-shells:  12   4   4   0
 Previous core-orbitals:   6   1   1   0
 Present occupation:      12   4   4   0
 Present closed-shells:   12   4   4   0
 Present core-orbitals:    6   1   1   0
 Wavefunction symmetry:    1   Singlet 

 Orbital overlap <old|new>:  < 1.1| 1.1> = 1.000000   < 2.1| 2.1> = 0.999999   < 3.1| 3.1> = 0.999999   < 4.1| 4.1> = 0.999997
                             < 5.1| 5.1> = 0.999999   < 6.1| 6.1> = 0.999997   < 1.2| 1.2> = 0.999997   < 1.3| 1.3> = 0.999997
                             < 7.1| 7.1> = 0.999988   < 8.1| 8.1> = 0.999990   < 9.1| 9.1> = 0.999985   <10.1|10.1> = 0.999971
                             <11.1|11.1> = 0.999965   <12.1|12.1> = 0.999958   < 2.2| 2.2> = 0.999924   < 3.2| 3.2> = 0.999922
                             < 4.2| 4.2> = 0.999918   < 2.3| 2.3> = 0.999924   < 3.3| 3.3> = 0.999922   < 4.3| 4.3> = 0.999918

 Molecular orbital dump at record        2101.2

 ITERATION    DDIFF          GRAD             ENERGY        2-EL.EN.            DIPOLE MOMENTS         DIIS
    1      0.000D+00      0.000D+00      -693.78092625    773.331714    0.00000    0.00000    0.69666    0
    2      0.000D+00      0.627D-02      -693.85866077    776.771039    0.00000    0.00000    0.11507    1
    3      0.231D-01      0.119D-02      -693.86533085    776.865767    0.00000    0.00000    0.34021    2
    4      0.355D-02      0.559D-03      -693.86739075    776.546812    0.00000    0.00000    0.20832    3
    5      0.104D-02      0.226D-03      -693.86812356    776.631453    0.00000    0.00000    0.21571    4
    6      0.502D-03      0.116D-03      -693.86838926    776.574229    0.00000    0.00000    0.19526    5
    7      0.287D-03      0.552D-04      -693.86845339    776.574984    0.00000    0.00000    0.18850    6
    8      0.177D-03      0.277D-04      -693.86846937    776.575047    0.00000    0.00000    0.18812    7
    9      0.962D-04      0.833D-05      -693.86847146    776.576579    0.00000    0.00000    0.18888    8
   10      0.340D-04      0.375D-05      -693.86847182    776.576383    0.00000    0.00000    0.18930    8
   11      0.151D-04      0.184D-05      -693.86847189    776.577165    0.00000    0.00000    0.18974    9
   12      0.689D-05      0.958D-06      -693.86847189    776.577017    0.00000    0.00000    0.18971    0

 Final alpha occupancy:  12   4   4   0
 Final beta  occupancy:  12   4   3   0

 !RHF STATE 1.3 Energy               -693.868471892300
 Nuclear energy                       127.33347428
 One-electron energy                -1209.49045478
 Two-electron energy                  388.28850860
 Virial quotient                       -0.99897993
 !RHF STATE 1.3 Dipole moment           0.00000000     0.00000000     0.18971140
 Dipole moment /Debye                   0.00000000     0.00000000     0.48216669

 ELECTRON ORBITALS
 =================


   Orb  Occ    Energy  Couls-En    Coefficients

                                   1 1s      1 1s      1 1s      1 1s      1 1s      1 1s      1 2pz     1 2pz     1 2pz     1 2pz  
                                   1 2pz     1 3d0     1 3d2+    1 3d0     1 3d2+    1 3d0     1 3d2+    1 3d0     1 3d2+    1 4f0  
                                   1 4f2+    1 4f0     1 4f2+    1 4f0     1 4f2+    1 5g0     1 5g4+    1 5g2+    1 5g0     1 5g4+ 
                                   1 5g2+    2 1s      2 1s      2 1s      2 1s      2 1s      2 1s      2 2pz     2 2pz     2 2pz  
                                   2 2pz     2 2pz     2 3d0     2 3d2+    2 3d0     2 3d2+    2 3d0     2 3d2+    2 3d0     2 3d2+ 
                                   2 4f0     2 4f2+    2 4f0     2 4f2+    2 4f0     2 4f2+    2 5g0     2 5g4+    2 5g2+    2 5g0  
                                   2 5g4+    2 5g2+    3 1s      3 1s      3 1s      3 1s      3 1s      3 1s      3 2pz     3 2pz  
                                   3 2pz     3 2pz     3 2pz     3 3d0     3 3d2+    3 3d0     3 3d2+    3 3d0     3 3d2+    3 3d0  
                                   3 3d2+    3 4f0     3 4f2+    3 4f0     3 4f2+    3 4f0     3 4f2+    3 5g0     3 5g4+    3 5g2+ 
                                   3 5g0     3 5g4+    3 5g2+    4 1s      4 1s      4 1s      4 1s      4 1s      4 1s      4 1s   
                                   4 2pz     4 2pz     4 2pz     4 2pz     4 2pz     4 2pz     4 3d0     4 3d2+    4 3d0     4 3d2+ 
                                   4 3d0     4 3d2+    4 3d0     4 3d2+    4 4f0     4 4f2+    4 4f0     4 4f2+    4 4f0     4 4f2+ 
                                   4 5g0     4 5g4+    4 5g2+    4 5g0     4 5g4+    4 5g2+ 

   1.1   2  -118.5655 -284.6274  0.000011  0.000039 -0.000105  0.000417 -0.000667  0.000037 -0.000001  0.000015 -0.000895  0.000451
                                -0.000004 -0.000005  0.000000  0.000118  0.000000 -0.000221  0.000000  0.000115  0.000000 -0.000004
                                 0.000000 -0.000083  0.000000  0.000088  0.000000  0.000018  0.000000  0.000000 -0.000080  0.000000
                                 0.000000  0.000000 -0.000001  0.000013  0.000338  0.000137 -0.000207  0.000001 -0.000006 -0.000151
                                -0.000258  0.000025 -0.000001  0.000000 -0.000005  0.000000  0.000021  0.000000  0.000062  0.000000
                                 0.000003  0.000000  0.000000  0.000000  0.000012  0.000000 -0.000001  0.000000  0.000000  0.000001
                                 0.000000  0.000000  0.000021  0.000073  0.000023 -0.000005 -0.000711  0.000055  0.000008  0.000004
                                -0.000338  0.000244  0.000396 -0.000001  0.000000  0.000001  0.000000 -0.000215  0.000000 -0.000272
                                 0.000000 -0.000002  0.000000 -0.000019  0.000000  0.000227  0.000000 -0.000003  0.000000  0.000000
                                -0.000010  0.000000  0.000000  0.999952 -0.000316 -0.000623 -0.000080  0.000752  0.000531  0.000335
                                 0.000107  0.000427 -0.000289  0.000232  0.000012  0.000035  0.000173  0.000000  0.000029  0.000000
                                -0.000015  0.000000 -0.000025  0.000000  0.000061  0.000000 -0.000008  0.000000 -0.000003  0.000000
                                 0.000005  0.000000  0.000000  0.000008  0.000000  0.000000

   2.1   2   -20.6526  -61.9326  0.000026  0.000211 -0.000734 -0.000694  0.004375 -0.000083 -0.000493  0.000858 -0.005232 -0.005469
                                -0.000068 -0.000125 -0.000003  0.000867 -0.000003  0.002829  0.000016  0.000441 -0.000006  0.000057
                                 0.000003 -0.001089 -0.000016 -0.001021 -0.000020  0.000154  0.000000 -0.000005  0.000192  0.000000
                                 0.000010 -0.000070 -0.000247  0.000017  0.001169  0.001324  0.000595 -0.000058  0.000043 -0.000532
                                 0.000622 -0.000098  0.000008  0.000000 -0.000107 -0.000002  0.000049  0.000006 -0.000340  0.000008
                                 0.000019  0.000000  0.000147 -0.000002  0.000001 -0.000004 -0.000032  0.000000  0.000001 -0.000047
                                 0.000000  0.000003  1.000426  0.002306  0.000876 -0.006459 -0.007569 -0.002229  0.010390 -0.004617
                                -0.005685  0.000740  0.000576  0.000149 -0.000012 -0.000101  0.000102 -0.000456 -0.000035  0.001836
                                -0.000007  0.000006  0.000000  0.000188 -0.000005  0.000624 -0.000022  0.000048  0.000000  0.000001
                                -0.000048  0.000000 -0.000006 -0.000051 -0.000344 -0.000686 -0.000006  0.000047  0.001494  0.001227
                                 0.000423  0.001408 -0.001105  0.000470  0.000867  0.000185  0.001111 -0.000003 -0.000133  0.000000
                                -0.000002  0.000000  0.000315  0.000001  0.000207  0.000000 -0.000052  0.000000  0.000413 -0.000002
                                 0.000016  0.000000  0.000000  0.000201  0.000000  0.000000

   3.1   2   -15.6506  -46.6473  0.000131  0.000340 -0.001263  0.003248  0.001900 -0.000294  0.000818 -0.001662  0.004264  0.001880
                                 0.000364 -0.000197  0.000010  0.001400 -0.000010  0.002279 -0.000023 -0.000164 -0.000005 -0.000063
                                 0.000005  0.001138  0.000011  0.001896  0.000083  0.000330  0.000000 -0.000005 -0.000138  0.000000
                                -0.000036  1.000460  0.002281  0.000866 -0.009964  0.000149  0.001164 -0.013152  0.005705  0.007825
                                 0.000545 -0.000542  0.000109 -0.000085 -0.000247  0.000257  0.000820 -0.000032  0.000778 -0.000012
                                 0.000025 -0.000002 -0.000380 -0.000043 -0.000185  0.000027  0.000069  0.000000  0.000010  0.000118
                                 0.000000  0.000003 -0.000051 -0.000209  0.000071  0.001589 -0.002080  0.000354  0.000088 -0.000094
                                -0.000244 -0.002538 -0.001608  0.000013  0.000001 -0.000140 -0.000006 -0.000958  0.000048  0.000693
                                 0.000064 -0.000008 -0.000001 -0.000253  0.000010  0.000062  0.000033 -0.000037  0.000000  0.000000
                                -0.000074  0.000000  0.000008 -0.000006 -0.000041 -0.000083 -0.000031  0.000041 -0.000656 -0.000913
                                -0.000035 -0.000124  0.000042  0.000026 -0.000057 -0.000078  0.000232  0.000002 -0.000012  0.000000
                                -0.000001  0.000000  0.000148 -0.000009  0.000018  0.000006  0.000000 -0.000002  0.000210 -0.000007
                                -0.000013  0.000000  0.000000  0.000086  0.000000  0.000000

   4.1   2   -12.2834  -55.3621  0.000052  0.000214  0.000951 -0.002119  0.003768 -0.000192  0.000062 -0.000622  0.005129 -0.002601
                                -0.000107  0.000060  0.000000 -0.000524  0.000000  0.001185  0.000002 -0.001074  0.000000 -0.000001
                                 0.000000  0.000485 -0.000001 -0.000533 -0.000001 -0.000085  0.000000  0.000000  0.000465  0.000000
                                 0.000001 -0.000009 -0.000034 -0.000096 -0.001938 -0.000409  0.001688 -0.000012  0.000075  0.000834
                                 0.001560 -0.000123 -0.000005  0.000000  0.000043  0.000000 -0.000117  0.000000 -0.000389  0.000000
                                -0.000017  0.000000 -0.000025  0.000000 -0.000075  0.000000  0.000011  0.000000  0.000000  0.000006
                                 0.000000  0.000000 -0.000048 -0.000205 -0.000175  0.000297  0.002628 -0.001457 -0.000058  0.000085
                                 0.001275 -0.000234 -0.003047 -0.000017  0.000000  0.000118  0.000000  0.000476 -0.000002  0.000949
                                -0.000001  0.000013  0.000000 -0.000044  0.000000 -0.001159 -0.000001  0.000051  0.000000  0.000000
                                -0.000195  0.000000  0.000000  0.000135  1.001025  0.002457  0.000952 -0.003921 -0.000638 -0.002356
                                -0.001462 -0.003544  0.002199 -0.000162  0.000945 -0.000264 -0.000799 -0.000004  0.000090  0.000009
                                 0.000009 -0.000012  0.000365  0.000001 -0.000281 -0.000003  0.000097  0.000000 -0.000016  0.000000
                                 0.000026  0.000000  0.000000 -0.000098  0.000000  0.000000

   5.1   2   -11.4338  -39.1108  1.000300  0.004667  0.000925  0.003558 -0.005128 -0.000492 -0.001771  0.001062  0.001766  0.000360
                                -0.000104  0.000049 -0.000054  0.002782  0.000091 -0.002255  0.000054 -0.000520  0.000002  0.000020
                                 0.000009  0.000030  0.000029 -0.000020  0.000007  0.000485  0.000000  0.000006 -0.000346  0.000000
                                 0.000041 -0.000411  0.000516  0.000372 -0.000775  0.000023  0.000199 -0.000924  0.000293  0.002051
                                 0.001291  0.000172  0.000042  0.000005 -0.000342  0.000017 -0.001169 -0.000033 -0.000387 -0.000005
                                -0.000028 -0.000007  0.000169  0.000010  0.000281  0.000022  0.000082  0.000000  0.000005 -0.000026
                                 0.000000 -0.000011 -0.000254  0.000792  0.000014 -0.000440  0.001503  0.000573  0.001061 -0.000262
                                -0.000857 -0.001511 -0.000104  0.000021 -0.000001  0.000012 -0.000008 -0.000436 -0.000053 -0.000358
                                -0.000006  0.000047  0.000001  0.000181 -0.000024 -0.000373 -0.000023  0.000100  0.000000 -0.000002
                                 0.000081  0.000000 -0.000016  0.000005  0.000037  0.000085  0.000055 -0.000170 -0.000334 -0.000204
                                 0.000024  0.000093 -0.000033 -0.000297 -0.000231 -0.000022 -0.000098 -0.000001 -0.000032  0.000001
                                 0.000006  0.000000 -0.000059  0.000000 -0.000014  0.000003 -0.000003 -0.000001  0.000008 -0.000003
                                -0.000007  0.000000  0.000000  0.000016  0.000000  0.000001

   6.1   2    -9.5328  -51.8976 -0.000030 -0.000122 -0.000669  0.000778 -0.002802 -0.000457 -0.000060  0.000425 -0.002657  0.000373
                                -0.000057 -0.000037  0.000000  0.000370  0.000000 -0.000734 -0.000001 -0.000505  0.000000 -0.000002
                                 0.000000 -0.000306 -0.000001 -0.000384  0.000001  0.000050  0.000000  0.000000 -0.000295  0.000000
                                 0.000000 -0.000002 -0.000009  0.000040  0.001629  0.001503  0.000423  0.000015 -0.000062 -0.000472
                                -0.000223  0.000018  0.000003  0.000000 -0.000027  0.000000 -0.000040  0.000000  0.000051  0.000000
                                 0.000008  0.000000  0.000036  0.000000 -0.000014  0.000000 -0.000012  0.000000  0.000000  0.000010
                                 0.000000  0.000000  0.000024  0.000125  0.000110 -0.000160 -0.002750 -0.001938 -0.000002 -0.000035
                                -0.000975  0.004684  0.000206  0.000014  0.000000 -0.000071  0.000000 -0.000342  0.000000 -0.001678
                                 0.000001 -0.000007  0.000000  0.000013  0.000000  0.001007  0.000000 -0.000029  0.000000  0.000000
                                 0.000122  0.000000 -0.000001  0.000138  0.001187  0.001189 -0.000485 -0.001427  0.004607  0.001441
                                 1.000672  0.002448 -0.001633  0.001097  0.001862  0.000221  0.001170  0.000001 -0.000070 -0.000004
                                 0.000094  0.000002  0.000502 -0.000001  0.000130  0.000004 -0.000002 -0.000004  0.000229 -0.000002
                                 0.000024  0.000000  0.000000  0.000033  0.000000  0.000000

   7.1   2    -1.5213  -17.7242 -0.010178  0.445686 -0.007512 -0.153739 -0.096229 -0.000742 -0.274881  0.011706  0.078195  0.052712
                                 0.002096  0.009563 -0.000085  0.022593 -0.000818  0.036680 -0.000716  0.002989 -0.000061 -0.004048
                                 0.000134 -0.005112  0.000399 -0.007747  0.000267  0.002311  0.000001 -0.000014  0.003028  0.000003
                                 0.000033 -0.001219  0.066740 -0.002441 -0.013776 -0.015553  0.000207 -0.031323  0.002051  0.002787
                                 0.007177 -0.001697  0.000432  0.000056  0.001425  0.000098  0.005622  0.000199  0.000977  0.000053
                                -0.000099  0.000005 -0.000720  0.000029 -0.001809  0.000006 -0.000196  0.000000  0.000002  0.000185
                                -0.000001 -0.000028 -0.004266  0.823903 -0.007215 -0.055597 -0.048063  0.009794  0.166257  0.000072
                                -0.006071  0.022657 -0.000045  0.002656  0.000142  0.011094 -0.000045  0.030799  0.000199  0.015809
                                 0.000165  0.001180 -0.000057  0.004677 -0.000184  0.007110 -0.000192  0.000612  0.000000 -0.000023
                                 0.002493  0.000000 -0.000058  0.000073 -0.000839  0.130826 -0.000818 -0.001643 -0.006286  0.001700
                                -0.003809  0.037486  0.004047 -0.001078 -0.002407 -0.000072  0.003568 -0.000078  0.003592 -0.000014
                                 0.002410 -0.000010  0.001506 -0.000028  0.000663 -0.000001  0.000776 -0.000005  0.000604 -0.000060
                                 0.000278  0.000000  0.000003  0.000162  0.000000 -0.000022

   8.1   2    -1.2775  -17.4775  0.004960 -0.383698 -0.003075  0.099888  0.071056 -0.005975 -0.154101  0.006033  0.027558  0.031980
                                -0.003235 -0.006550 -0.000116 -0.012539 -0.000046 -0.028387 -0.000416 -0.011096  0.000036 -0.001071
                                -0.000024 -0.004544 -0.000290 -0.004942 -0.000441 -0.000676  0.000000  0.000083 -0.005895  0.000002
                                -0.000070  0.003304 -0.417508  0.005186  0.055727  0.044093  0.002634  0.152293 -0.002684 -0.010354
                                -0.003301  0.003913 -0.002480 -0.000262 -0.010317 -0.000162 -0.019538 -0.000996 -0.007922 -0.000412
                                 0.001122 -0.000081  0.003737 -0.000111  0.003310  0.000077 -0.000684 -0.000001  0.000041 -0.000075
                                 0.000004  0.000029  0.000060  0.038083  0.001192  0.009361  0.002705 -0.009461 -0.139865  0.002021
                                -0.002472  0.048178 -0.005651 -0.000319  0.000026 -0.001635  0.000104 -0.000840  0.000224 -0.009250
                                -0.000053 -0.000447  0.000045 -0.002184  0.000100  0.004170  0.000090 -0.000061  0.000000  0.000005
                                 0.001129 -0.000001 -0.000056  0.000024 -0.000860  0.784749 -0.002452 -0.001161  0.020903  0.005359
                                -0.001886  0.040490  0.002123  0.006532  0.007010 -0.000006  0.004537 -0.000120  0.002448 -0.000036
                                 0.001095 -0.000012  0.003486 -0.000016  0.000396 -0.000053  0.000344 -0.000009  0.000285 -0.000066
                                 0.000205  0.000000 -0.000008 -0.000144  0.000000 -0.000032

   9.1   2    -1.2515  -15.9600  0.003787 -0.309493  0.002994  0.090195  0.064897 -0.000005 -0.427760  0.007630  0.128003  0.127429
[...]
                                 0.000000  0.000000  0.000000 -0.000002  0.000000 -0.000001  0.000000  0.000000 -0.000004  0.000000
                                 0.000000  0.000000 -0.000001 -0.000002  0.000035  0.000038 -0.000027  0.000001 -0.000001 -0.000015
                                -0.000024 -0.000008  0.000000  0.000000  0.000002  0.000000  0.000003  0.000000  0.000013  0.000000
                                 0.000000  0.000000 -0.000001  0.000000 -0.000004  0.000000  0.000000  0.000000  0.000000  0.000001
                                 0.000000  0.000000  0.000000 -0.000001 -0.000002  0.000023  0.000045  0.000095 -0.000001  0.000001
                                 0.000007 -0.000022  0.000041  0.000000  0.000000  0.000002  0.000000 -0.000006  0.000000 -0.000024
                                 0.000000  0.000000  0.000000  0.000001  0.000000 -0.000007  0.000000  0.000000  0.000000  0.000000
                                -0.000001  0.000000  0.000000 -0.000001 -0.000007 -0.000015 -0.000004  0.000027 -0.000017  0.000014
                                 1.000062  0.000209 -0.000138 -0.000013 -0.000164  0.000102 -0.000005  0.000000  0.000003  0.000000
                                -0.000001  0.000000  0.000007  0.000000 -0.000001  0.000000  0.000000  0.000000  0.000001  0.000000
                                 0.000000  0.000000  0.000000  0.000000  0.000000  0.000000

   4.1   2    -1.2774  -14.7903  0.000013  0.000050 -0.000122  0.002595  0.004642 -0.002136 -0.000044  0.000262 -0.003518 -0.008159
                                -0.000388 -0.000011  0.000000  0.000207  0.000000 -0.000003  0.000000 -0.002100  0.000000  0.000007
                                 0.000000 -0.000401  0.000000 -0.000803  0.000000  0.000010  0.000000  0.000000  0.000043  0.000000
                                 0.000000  0.000000  0.000000 -0.000052  0.001235  0.005647  0.005762 -0.000004 -0.000009 -0.000773
                                 0.000436 -0.000646 -0.000004  0.000000  0.000045  0.000000 -0.000112  0.000000 -0.000586  0.000000
                                -0.000007  0.000000  0.000074  0.000000  0.000042  0.000000 -0.000008  0.000000  0.000000 -0.000024
                                 0.000000  0.000000  0.000018  0.000064  0.000103 -0.000906 -0.005135 -0.008239 -0.000002  0.000014
                                -0.000829 -0.002690 -0.004060  0.000002  0.000000 -0.000028  0.000000 -0.000331  0.000000 -0.000660
                                 0.000000 -0.000004  0.000000  0.000004  0.000000 -0.000138  0.000000  0.000002  0.000000  0.000000
                                -0.000004  0.000000  0.000000 -0.000086 -0.000617  0.998724 -0.000635  0.003211 -0.002608  0.001796
                                -0.000059 -0.000199  0.000142 -0.000051  0.000393 -0.000615  0.000155  0.000000 -0.000065  0.000000
                                 0.000019  0.000000 -0.000250  0.000000  0.000028  0.000000 -0.000007  0.000000 -0.000040  0.000000
                                 0.000001  0.000000  0.000000 -0.000003  0.000000  0.000000

   5.1   2    -0.5911  -12.3752 -0.000031 -0.000121 -0.000128 -0.002873  0.005760 -0.000461 -0.000041  0.000153  0.001642 -0.004767
                                -0.000528 -0.000008  0.000000 -0.000030  0.000000  0.002159  0.000000 -0.000260  0.000000 -0.000005
                                 0.000000  0.000083  0.000000 -0.000393  0.000000  0.000004  0.000000  0.000000  0.000224  0.000000
                                 0.000000  0.000005  0.000018  0.000045 -0.001460 -0.000176  0.002513 -0.000019  0.000040  0.000563
                                 0.001151 -0.000146  0.000003  0.000000 -0.000029  0.000000 -0.000076  0.000000 -0.000616  0.000000
                                 0.000000  0.000000  0.000020  0.000000  0.000055  0.000000  0.000003  0.000000  0.000000 -0.000039
                                 0.000000  0.000000  0.000010  0.000037  0.000057 -0.001066 -0.001267 -0.003164  0.000027 -0.000056
                                -0.000011  0.002867 -0.002132  0.000006  0.000000 -0.000043  0.000000  0.000435  0.000000  0.001744
                                 0.000000  0.000001  0.000000 -0.000005  0.000000  0.000322  0.000000 -0.000001  0.000000  0.000000
                                 0.000020  0.000000  0.000000  0.000009  0.000068  0.000146  0.000085 -0.000418  0.000469 -0.000439
                                 0.000708  1.002364 -0.001682  0.000495 -0.003630  0.003140  0.000101  0.000000 -0.000041  0.000000
                                 0.000011  0.000000 -0.000169  0.000000  0.000011  0.000000 -0.000002  0.000000 -0.000015  0.000000
                                 0.000000  0.000000  0.000000 -0.000001  0.000000  0.000000

                                   1 2px     1 2px     1 2px     1 2px     1 2px     1 3d1+    1 3d1+    1 3d1+    1 3d1+    1 4f1+ 
                                   1 4f3+    1 4f1+    1 4f3+    1 4f1+    1 4f3+    1 5g1+    1 5g3+    1 5g1+    1 5g3+    2 2px  
                                   2 2px     2 2px     2 2px     2 2px     2 3d1+    2 3d1+    2 3d1+    2 3d1+    2 4f1+    2 4f3+ 
                                   2 4f1+    2 4f3+    2 4f1+    2 4f3+    2 5g1+    2 5g3+    2 5g1+    2 5g3+    3 2px     3 2px  
                                   3 2px     3 2px     3 2px     3 3d1+    3 3d1+    3 3d1+    3 3d1+    3 4f1+    3 4f3+    3 4f1+ 
                                   3 4f3+    3 4f1+    3 4f3+    3 5g1+    3 5g3+    3 5g1+    3 5g3+    4 2px     4 2px     4 2px  
                                   4 2px     4 2px     4 2px     4 3d1+    4 3d1+    4 3d1+    4 3d1+    4 4f1+    4 4f3+    4 4f1+ 
                                   4 4f3+    4 4f1+    4 4f3+    4 5g1+    4 5g3+    4 5g1+    4 5g3+ 

   1.2   2    -9.5716  -47.7336  0.000001 -0.000001  0.000012  0.000041  0.000004  0.000001 -0.000006 -0.000021 -0.000025  0.000000
                                 0.000000  0.000001  0.000000  0.000010  0.000000 -0.000001  0.000000 -0.000001  0.000000 -0.000001
                                 0.000001  0.000000  0.000008  0.000009  0.000000  0.000000 -0.000005 -0.000001  0.000000  0.000000
                                 0.000001  0.000000  0.000002  0.000000  0.000000  0.000000 -0.000001  0.000000  0.000000  0.000001
                                -0.000005 -0.000047 -0.000033  0.000000  0.000000 -0.000009 -0.000016  0.000000  0.000000 -0.000002
                                 0.000000 -0.000003  0.000000  0.000000  0.000000 -0.000001  0.000000  1.000055  0.000187 -0.000124
                                -0.000012 -0.000144  0.000084 -0.000001  0.000000  0.000000  0.000001  0.000000  0.000000  0.000000
                                 0.000000  0.000000  0.000000  0.000000  0.000000  0.000000  0.000000

   2.2   2    -0.5911  -12.3752 -0.000009  0.000019 -0.000187 -0.001148 -0.000247 -0.000006  0.000068  0.000429  0.000784 -0.000004
                                 0.000000 -0.000008  0.000000 -0.000216  0.000000  0.000008  0.000000  0.000014  0.000000  0.000009
                                -0.000012  0.000006 -0.000204 -0.000234  0.000000 -0.000001  0.000101  0.000006  0.000001  0.000000
                                -0.000020  0.000000 -0.000037  0.000000  0.000002  0.000000  0.000008  0.000000  0.000003 -0.000008
                                 0.000057  0.001057  0.001154  0.000001 -0.000006  0.000122  0.000394 -0.000001  0.000000  0.000018
                                 0.000000  0.000045  0.000000  0.000001  0.000000  0.000009  0.000000  0.000801  1.002676 -0.001906
                                 0.000577 -0.004195  0.003841  0.000012 -0.000005  0.000001 -0.000018  0.000002  0.000000 -0.000001
                                 0.000000 -0.000003  0.000000  0.000000  0.000000  0.000000  0.000000

                                   1 2py     1 2py     1 2py     1 2py     1 2py     1 3d1-    1 3d1-    1 3d1-    1 3d1-    1 4f1- 
                                   1 4f3-    1 4f1-    1 4f3-    1 4f1-    1 4f3-    1 5g1-    1 5g3-    1 5g1-    1 5g3-    2 2py  
                                   2 2py     2 2py     2 2py     2 2py     2 3d1-    2 3d1-    2 3d1-    2 3d1-    2 4f1-    2 4f3- 
                                   2 4f1-    2 4f3-    2 4f1-    2 4f3-    2 5g1-    2 5g3-    2 5g1-    2 5g3-    3 2py     3 2py  
                                   3 2py     3 2py     3 2py     3 3d1-    3 3d1-    3 3d1-    3 3d1-    3 4f1-    3 4f3-    3 4f1- 
                                   3 4f3-    3 4f1-    3 4f3-    3 5g1-    3 5g3-    3 5g1-    3 5g3-    4 2py     4 2py     4 2py  
                                   4 2py     4 2py     4 2py     4 3d1-    4 3d1-    4 3d1-    4 3d1-    4 4f1-    4 4f3-    4 4f1- 
                                   4 4f3-    4 4f1-    4 4f3-    4 5g1-    4 5g3-    4 5g1-    4 5g3- 

   1.3   2    -9.5716  -47.7336  0.000001 -0.000001  0.000012  0.000041  0.000004  0.000001 -0.000006 -0.000021 -0.000025  0.000000
                                 0.000000  0.000001  0.000000  0.000010  0.000000 -0.000001  0.000000 -0.000001  0.000000 -0.000001
                                 0.000001  0.000000  0.000008  0.000009  0.000000  0.000000 -0.000005 -0.000001  0.000000  0.000000
                                 0.000001  0.000000  0.000002  0.000000  0.000000  0.000000 -0.000001  0.000000  0.000000  0.000001
                                -0.000005 -0.000047 -0.000033  0.000000  0.000000 -0.000009 -0.000016  0.000000  0.000000 -0.000002
                                 0.000000 -0.000003  0.000000  0.000000  0.000000 -0.000001  0.000000  1.000055  0.000187 -0.000124
                                -0.000012 -0.000144  0.000084 -0.000001  0.000000  0.000000  0.000001  0.000000  0.000000  0.000000
                                 0.000000  0.000000  0.000000  0.000000  0.000000  0.000000  0.000000

   2.3   2    -0.5911  -12.3752 -0.000009  0.000019 -0.000187 -0.001148 -0.000247 -0.000006  0.000068  0.000429  0.000784 -0.000004
                                 0.000000 -0.000008  0.000000 -0.000216  0.000000  0.000008  0.000000  0.000014  0.000000  0.000009
                                -0.000012  0.000006 -0.000204 -0.000234  0.000000 -0.000001  0.000101  0.000006  0.000001  0.000000
                                -0.000020  0.000000 -0.000037  0.000000  0.000002  0.000000  0.000008  0.000000  0.000003 -0.000008
                                 0.000057  0.001057  0.001154  0.000001 -0.000006  0.000122  0.000394 -0.000001  0.000000  0.000018
                                 0.000000  0.000045  0.000000  0.000001  0.000000  0.000009  0.000000  0.000801  1.002676 -0.001906
                                 0.000577 -0.004195  0.003841  0.000012 -0.000005  0.000001 -0.000018  0.000002  0.000000 -0.000001
                                 0.000000 -0.000003  0.000000  0.000000  0.000000  0.000000  0.000000


 **********************************************************************************************************************************
 DATASETS  * FILE   NREC   LENGTH (MB)   RECORD NAMES
              1      19      667.66       500      610      700      900      950      970     1001      129      960     1100   
                                          VAR    BASINP    GEOM    SYMINP    ZMAT    AOBASIS   BASIS     P2S    ABASIS      S 
                                         1400     1410     1200     1210     1080     1600     1650     1300     1700   
                                           T        V       H0       H01     AOSYM     SMH    MOLCAS    ERIS     OPER   

              2       7        3.57       700     1000     2100     1001     2101     2102     2103   
                                         GEOM     BASIS     RHF     BASIS     RHF      RHF      RHF  

 PROGRAMS   *        TOTAL        HF       INT  RCCSD(T)        HF       INT  RCCSD(T)        HF       INT        HF       INT
 CPU TIMES  *     18064.16      4.25      0.08    459.26      4.75      0.08   1379.05     11.45     38.31      0.02      0.14
 REAL TIME  *     18495.32 SEC
 DISK USED  *         5.39 GB      
 GA USED    *         0.00 MB       (max)       0.00 MB       (current)
 **********************************************************************************************************************************


1PROGRAM * CCSD (Restricted open-shell coupled cluster)     Authors: C. Hampel, H.-J. Werner, 1991, M. Deegan, P.J. Knowles, 1992


 Convergence thresholds:  THRVAR = 1.00D-08  THRDEN = 1.00D-06

 CCSD(T)     terms to be evaluated (factor= 1.000)


 Number of core orbitals:           5 (   3   1   1   0 )
 Number of closed-shell orbitals:   4 (   2   1   1   0 )
 Number of external orbitals:     315 ( 121  75  75  44 )

 Memory could be reduced to 86.43 Mwords without degradation in triples

 Number of N-1 electron functions:               8
 Number of N-2 electron functions:              28
 Number of singly external CSFs:               784
 Number of doubly external CSFs:            560530
 Total number of CSFs:                      561314

 Molecular orbitals read from record     2103.2  Type=RHF/CANONICAL (state 1.1)

 Integral transformation finished. Total CPU:   4.20 sec, npass=  1  Memory used:   5.73 MW

 Starting RMP2 calculation

 Wavefunction is spin-projected

 ITER.      SQ.NORM     CORR.ENERGY   TOTAL ENERGY   ENERGY CHANGE        DEN1      VAR(S)    VAR(P)  DIIS     TIME
   1      1.06501372    -0.23138690  -527.04819343    -0.23138690    -0.00071490  0.28D-13  0.25D-03  1  1     4.97
   2      1.06558289    -0.23214945  -527.04895598    -0.00076255    -0.00000034  0.37D-15  0.13D-06  2  2     5.01
   3      1.06559075    -0.23215531  -527.04896184    -0.00000586     0.00000000  0.54D-17  0.13D-09  3  3     5.06
   4      1.06559081    -0.23215532  -527.04896185    -0.00000001     0.00000000  0.69D-19  0.16D-12  4  4     5.11

 Norm of t1 vector:      0.00000128      S-energy:     0.00000000      T1 diagnostic:  0.00000032
 Norm of t2 vector:      0.25610703      P-energy:    -0.23215532
                                         Alpha-Beta:  -0.17738046
                                         Alpha-Alpha: -0.02738743
                                         Beta-Beta:   -0.02738743

 Spin contamination <S**2-Sz**2-Sz>     0.00000000
  Reference energy                   -526.816806528852
  RHF-RMP2 correlation energy          -0.232155320383
 !RHF-RMP2 energy                    -527.048961849236
 (NB above energy spin projected)

 Starting RCCSD calculation

 ITER.      SQ.NORM     CORR.ENERGY   TOTAL ENERGY   ENERGY CHANGE        DEN1      VAR(S)    VAR(P)  DIIS     TIME
   1      1.07213485    -0.24374338  -527.06054991    -0.24374338    -0.00494838  0.57D-04  0.12D-02  1  1    10.69
   2      1.07609292    -0.24912729  -527.06593382    -0.00538391    -0.00009231  0.13D-05  0.25D-04  2  2    16.28
   3      1.07646782    -0.24942557  -527.06623210    -0.00029828    -0.00000354  0.76D-07  0.10D-05  3  3    21.84
   4      1.07654034    -0.24947438  -527.06628090    -0.00004880    -0.00000015  0.90D-08  0.42D-07  4  4    27.42
   5      1.07655082    -0.24947985  -527.06628638    -0.00000547     0.00000000  0.63D-09  0.13D-08  5  5    33.01
   6      1.07655076    -0.24947925  -527.06628578     0.00000059     0.00000000  0.71D-10  0.57D-10  6  6    38.60

 Norm of t1 vector:      0.00875440      S-energy:     0.00000001      T1 diagnostic:  0.00218860
                                                                       D1 diagnostic:  0.00314764
 Norm of t2 vector:      0.27653955      P-energy:    -0.24947926
                                         Alpha-Beta:  -0.19632388
                                         Alpha-Alpha: -0.02657769
                                         Beta-Beta:   -0.02657769

 Spin contamination <S**2-Sz**2-Sz>     0.00000000

 Memory could be reduced to 84.58 Mwords without degradation in triples
 

 RESULTS
 =======

  Reference energy                   -526.816806528852
  RCCSD singles energy                  0.000000005121
  RCCSD pair energy                    -0.249479257207
  RCCSD correlation energy             -0.249479252086
  Triples (T) contribution             -0.008778066337
  Total correlation energy             -0.258257318423
 
  RHF-RCCSD energy                   -527.066285780938
  RHF-RCCSD[T] energy                -527.075080388293
  RHF-RCCSD-T energy                 -527.075069040735
 !RHF-RCCSD(T) energy                -527.075063847275

 Program statistics:

 Available memory in ccsd:               999999732
 Min. memory needed in ccsd:               2261547
 Max. memory used in ccsd:                 2860571
 Max. memory used in cckext:               3471576 ( 6 integral passes)
 Max. memory used in cckint:               5731981 ( 1 integral passes)



 **********************************************************************************************************************************
 DATASETS  * FILE   NREC   LENGTH (MB)   RECORD NAMES
              1      19      667.66       500      610      700      900      950      970     1001      129      960     1100   
                                          VAR    BASINP    GEOM    SYMINP    ZMAT    AOBASIS   BASIS     P2S    ABASIS      S 
                                         1400     1410     1200     1210     1080     1600     1650     1300     1700   
                                           T        V       H0       H01     AOSYM     SMH    MOLCAS    ERIS     OPER   

              2       7        3.57       700     1000     2100     1001     2101     2102     2103   
                                         GEOM     BASIS     RHF     BASIS     RHF      RHF      RHF  

 PROGRAMS   *        TOTAL  RCCSD(T)        HF       INT  RCCSD(T)        HF       INT  RCCSD(T)        HF       INT        HF
 CPU TIMES  *     18145.54     81.38      4.25      0.08    459.26      4.75      0.08   1379.05     11.45     38.31      0.02
 REAL TIME  *     18578.65 SEC
 DISK USED  *         5.39 GB      
 GA USED    *         0.00 MB       (max)       0.00 MB       (current)
 **********************************************************************************************************************************
 SETTING E_AR(9)        =      -527.07506385  AU                              
 SETTING DE_CP(9)       =        -7.92286110  CM-1                            
 SETTING R(9)           =         7.00000000  ANGSTROM                        
 SETTING RARQ           =         7.50000000  ANGSTROM                        
                                                                                                                                                                                                                                                                
 Result for angle 0

      R       E_CP      E_COMPLEX        E_NCO          E_AR
    3.0   27135.21   -694.7550577   -167.8028294   -527.0758653
    3.5    3891.47   -694.8602840   -167.8026576   -527.0753572
    4.0     296.71   -694.8764334   -167.8025855   -527.0751997
    4.5     -94.30   -694.8780969   -167.8025364   -527.0751308
    5.0     -78.30   -694.8779759   -167.8025162   -527.0751029
    5.5     -43.55   -694.8777900   -167.8025061   -527.0750854
    6.0     -23.60   -694.8776803   -167.8024989   -527.0750738
    6.5     -13.33   -694.8776243   -167.8024959   -527.0750676
    7.0      -7.92   -694.8775945   -167.8024945   -527.0750638
                                                  

        RCCSD(T)        HF-SCF          RCCSD(T)        HF-SCF          RCCSD(T)        HF-SCF          HF-SCF          RCCSD(T)
   -527.07506385   -526.81680653   -167.80249453   -167.19164800   -694.87759448   -694.00845487   -693.99884784   -527.07506763
 **********************************************************************************************************************************
 Variable memory released
